VARIABLES="w (rad/s)"
"abs(F   1   1)" "angle(F   1   1)"
"abs(F   1   2)" "angle(F   1   2)"
"abs(F   1   3)" "angle(F   1   3)"
"abs(F   1   4)" "angle(F   1   4)"
"abs(F   1   5)" "angle(F   1   5)"
"abs(F   1   6)" "angle(F   1   6)"
Zone t="Diffraction force - beta =  30.000 deg",I=   500,F=POINT
  0.5257440E+00  0.3046324E+06 -0.1564678E+01  0.1758796E+06 -0.1564678E+01  0.5323126E+06 -0.2237207E-01  0.3959698E+06 -0.1564677E+01  0.6858406E+06  0.1576914E+01  0.3214459E-05 -0.7243235E-04
  0.5320246E+00  0.3112890E+06 -0.1564262E+01  0.1797228E+06 -0.1564262E+01  0.5273662E+06 -0.2330249E-01  0.4038993E+06 -0.1564265E+01  0.6995741E+06  0.1577330E+01  0.3596819E-05  0.1119894E-01
  0.5383052E+00  0.3179617E+06 -0.1563825E+01  0.1835752E+06 -0.1563825E+01  0.5223952E+06 -0.2425746E-01  0.4118246E+06 -0.1563828E+01  0.7133012E+06  0.1577767E+01  0.3938164E-05 -0.5853073E-02
  0.5445858E+00  0.3246873E+06 -0.1563365E+01  0.1874582E+06 -0.1563365E+01  0.5174099E+06 -0.2523768E-01  0.4197803E+06 -0.1563366E+01  0.7270808E+06  0.1578227E+01  0.4281498E-05 -0.3969798E-02
  0.5508664E+00  0.3314842E+06 -0.1562882E+01  0.1913824E+06 -0.1562882E+01  0.5124102E+06 -0.2624362E-01  0.4277685E+06 -0.1562881E+01  0.7409174E+06  0.1578710E+01  0.4535545E-05  0.1283367E-02
  0.5571470E+00  0.3383301E+06 -0.1562374E+01  0.1953349E+06 -0.1562374E+01  0.5073952E+06 -0.2727588E-01  0.4358076E+06 -0.1562374E+01  0.7548406E+06  0.1579218E+01  0.5074723E-05 -0.1468175E-02
  0.5634276E+00  0.3452073E+06 -0.1561841E+01  0.1993054E+06 -0.1561841E+01  0.5023675E+06 -0.2833403E-01  0.4438265E+06 -0.1561843E+01  0.7687307E+06  0.1579752E+01  0.5630067E-05  0.4094142E-02
  0.5697082E+00  0.3521227E+06 -0.1561281E+01  0.2032980E+06 -0.1561281E+01  0.4973239E+06 -0.2941827E-01  0.4518745E+06 -0.1561285E+01  0.7826697E+06  0.1580312E+01  0.6001284E-05 -0.4966011E-02
  0.5759888E+00  0.3590886E+06 -0.1560694E+01  0.2073197E+06 -0.1560693E+01  0.4922662E+06 -0.3052942E-01  0.4599821E+06 -0.1560695E+01  0.7967129E+06  0.1580898E+01  0.6610727E-05 -0.2747173E-02
  0.5822694E+00  0.3660928E+06 -0.1560079E+01  0.2113638E+06 -0.1560080E+01  0.4871929E+06 -0.3166755E-01  0.4681108E+06 -0.1560079E+01  0.8107924E+06  0.1581513E+01  0.7139754E-05  0.7826511E-03
  0.5885500E+00  0.3730709E+06 -0.1559436E+01  0.2153925E+06 -0.1559436E+01  0.4821040E+06 -0.3283206E-01  0.4761613E+06 -0.1559437E+01  0.8247357E+06  0.1582156E+01  0.7712119E-05 -0.1751034E-02
  0.5948306E+00  0.3801202E+06 -0.1558762E+01  0.2194623E+06 -0.1558762E+01  0.4769981E+06 -0.3402524E-01  0.4842950E+06 -0.1558765E+01  0.8388241E+06  0.1582829E+01  0.8288330E-05 -0.2443952E-02
  0.6011113E+00  0.3872247E+06 -0.1558059E+01  0.2235641E+06 -0.1558059E+01  0.4718738E+06 -0.3524631E-01  0.4924767E+06 -0.1558057E+01  0.8529953E+06  0.1583534E+01  0.9037795E-05  0.1339619E-02
  0.6073918E+00  0.3943448E+06 -0.1557323E+01  0.2276750E+06 -0.1557323E+01  0.4667547E+06 -0.3649272E-01  0.5006139E+06 -0.1557325E+01  0.8670899E+06  0.1584269E+01  0.1011009E-04  0.1381774E-03
  0.6136725E+00  0.4015157E+06 -0.1556555E+01  0.2318149E+06 -0.1556555E+01  0.4617672E+06 -0.3776056E-01  0.5087986E+06 -0.1556555E+01  0.8812664E+06  0.1585038E+01  0.1068956E-04  0.1786053E-02
  0.6199530E+00  0.4086961E+06 -0.1555753E+01  0.2359605E+06 -0.1555753E+01  0.4567668E+06 -0.3905756E-01  0.5169992E+06 -0.1555753E+01  0.8954707E+06  0.1585839E+01  0.1152558E-04  0.7030081E-02
  0.6262337E+00  0.4158819E+06 -0.1554917E+01  0.2401093E+06 -0.1554918E+01  0.4517715E+06 -0.4038225E-01  0.5251639E+06 -0.1554919E+01  0.9096111E+06  0.1586675E+01  0.1243858E-04  0.1197980E-02
  0.6325143E+00  0.4231651E+06 -0.1554047E+01  0.2443142E+06 -0.1554047E+01  0.4467718E+06 -0.4173724E-01  0.5333401E+06 -0.1554049E+01  0.9237732E+06  0.1587545E+01  0.1336618E-04 -0.1289035E-02
  0.6387949E+00  0.4304880E+06 -0.1553140E+01  0.2485421E+06 -0.1553140E+01  0.4417776E+06 -0.4312161E-01  0.5414368E+06 -0.1553141E+01  0.9377977E+06  0.1588451E+01  0.1448620E-04 -0.2250162E-03
  0.6450755E+00  0.4378658E+06 -0.1552197E+01  0.2528014E+06 -0.1552197E+01  0.4367813E+06 -0.4453814E-01  0.5495716E+06 -0.1552197E+01  0.9518871E+06  0.1589395E+01  0.1556752E-04  0.2647247E-02
  0.6513561E+00  0.4452622E+06 -0.1551216E+01  0.2570718E+06 -0.1551216E+01  0.4317900E+06 -0.4598322E-01  0.5576079E+06 -0.1551216E+01  0.9658079E+06  0.1590376E+01  0.1686516E-04  0.1132045E-02
  0.6576367E+00  0.4526859E+06 -0.1550196E+01  0.2613581E+06 -0.1550196E+01  0.4267972E+06 -0.4745920E-01  0.5656311E+06 -0.1550198E+01  0.9797028E+06  0.1591396E+01  0.1812854E-04 -0.3339263E-03
  0.6639173E+00  0.4601438E+06 -0.1549136E+01  0.2656640E+06 -0.1549136E+01  0.4218069E+06 -0.4896670E-01  0.5736599E+06 -0.1549138E+01  0.9936088E+06  0.1592456E+01  0.1935441E-04  0.1130806E-02
  0.6701979E+00  0.4676587E+06 -0.1548034E+01  0.2700028E+06 -0.1548035E+01  0.4168175E+06 -0.5050649E-01  0.5817168E+06 -0.1548036E+01  0.1007563E+07  0.1593557E+01  0.2084778E-04  0.1027468E-02
  0.6764785E+00  0.4751011E+06 -0.1546891E+01  0.2742996E+06 -0.1546891E+01  0.4118277E+06 -0.5207753E-01  0.5895951E+06 -0.1546892E+01  0.1021208E+07  0.1594700E+01  0.2242447E-04 -0.1422456E-02
  0.6827591E+00  0.4825739E+06 -0.1545704E+01  0.2786142E+06 -0.1545703E+01  0.4068376E+06 -0.5368071E-01  0.5974494E+06 -0.1545704E+01  0.1034814E+07  0.1595887E+01  0.2400735E-04  0.6594849E-03
  0.6890397E+00  0.4901155E+06 -0.1544473E+01  0.2829682E+06 -0.1544473E+01  0.4018472E+06 -0.5532077E-01  0.6053697E+06 -0.1544478E+01  0.1048531E+07  0.1597117E+01  0.2578408E-04 -0.9933024E-04
  0.6953203E+00  0.4976719E+06 -0.1543198E+01  0.2873309E+06 -0.1543198E+01  0.3968539E+06 -0.5699299E-01  0.6132112E+06 -0.1543199E+01  0.1062114E+07  0.1598392E+01  0.2757012E-04  0.4560319E-03
  0.7016009E+00  0.5052316E+06 -0.1541877E+01  0.2916955E+06 -0.1541877E+01  0.3918932E+06 -0.5869135E-01  0.6209799E+06 -0.1541879E+01  0.1075569E+07  0.1599713E+01  0.2950485E-04  0.1365190E-02
  0.7078815E+00  0.5128233E+06 -0.1540508E+01  0.2960784E+06 -0.1540508E+01  0.3870860E+06 -0.6039479E-01  0.6287419E+06 -0.1540511E+01  0.1089013E+07  0.1601081E+01  0.3163657E-04 -0.5372465E-03
  0.7141621E+00  0.5204126E+06 -0.1539092E+01  0.3004601E+06 -0.1539092E+01  0.3822735E+06 -0.6213635E-01  0.6364850E+06 -0.1539096E+01  0.1102425E+07  0.1602497E+01  0.3375944E-04 -0.1710396E-02
  0.7204427E+00  0.5279716E+06 -0.1537627E+01  0.3048241E+06 -0.1537627E+01  0.3774836E+06 -0.6390657E-01  0.6441086E+06 -0.1537631E+01  0.1115629E+07  0.1603962E+01  0.3595750E-04 -0.1748294E-03
  0.7267233E+00  0.5355695E+06 -0.1536111E+01  0.3092109E+06 -0.1536112E+01  0.3727031E+06 -0.6571404E-01  0.6517577E+06 -0.1536115E+01  0.1128878E+07  0.1605477E+01  0.3851992E-04  0.7978638E-03
  0.7330039E+00  0.5431969E+06 -0.1534546E+01  0.3136148E+06 -0.1534546E+01  0.3679409E+06 -0.6755602E-01  0.6593679E+06 -0.1534550E+01  0.1142060E+07  0.1607043E+01  0.4107742E-04 -0.2125537E-02
  0.7392845E+00  0.5508046E+06 -0.1532928E+01  0.3180069E+06 -0.1532928E+01  0.3631952E+06 -0.6943311E-01  0.6669114E+06 -0.1532933E+01  0.1155126E+07  0.1608660E+01  0.4376370E-04 -0.1298124E-02
  0.7455651E+00  0.5584328E+06 -0.1531258E+01  0.3224112E+06 -0.1531258E+01  0.3584645E+06 -0.7135013E-01  0.6744554E+06 -0.1531261E+01  0.1168193E+07  0.1610330E+01  0.4656165E-04 -0.5150496E-03
  0.7518457E+00  0.5660401E+06 -0.1529536E+01  0.3268031E+06 -0.1529536E+01  0.3537519E+06 -0.7330022E-01  0.6818780E+06 -0.1529539E+01  0.1181048E+07  0.1612054E+01  0.4967610E-04  0.1874790E-03
  0.7581264E+00  0.5736325E+06 -0.1527759E+01  0.3311864E+06 -0.1527759E+01  0.3490526E+06 -0.7528829E-01  0.6892650E+06 -0.1527763E+01  0.1193843E+07  0.1613831E+01  0.5281432E-04  0.1058034E-03
  0.7644069E+00  0.5812185E+06 -0.1525927E+01  0.3355663E+06 -0.1525926E+01  0.3443701E+06 -0.7731527E-01  0.6966396E+06 -0.1525929E+01  0.1206616E+07  0.1615663E+01  0.5619732E-04  0.1093776E-02
  0.7706876E+00  0.5888288E+06 -0.1524039E+01  0.3399602E+06 -0.1524039E+01  0.3397039E+06 -0.7938229E-01  0.7040103E+06 -0.1524041E+01  0.1219382E+07  0.1617551E+01  0.5967362E-04  0.3511561E-03
  0.7769681E+00  0.5963769E+06 -0.1522095E+01  0.3443182E+06 -0.1522094E+01  0.3350515E+06 -0.8149090E-01  0.7112563E+06 -0.1522096E+01  0.1231934E+07  0.1619496E+01  0.6359836E-04  0.9079166E-03
  0.7832488E+00  0.6038442E+06 -0.1520094E+01  0.3486295E+06 -0.1520094E+01  0.3304132E+06 -0.8363873E-01  0.7183441E+06 -0.1520095E+01  0.1244210E+07  0.1621497E+01  0.6744407E-04  0.7871023E-03
  0.7895294E+00  0.6113249E+06 -0.1518036E+01  0.3529484E+06 -0.1518037E+01  0.3257906E+06 -0.8583111E-01  0.7253962E+06 -0.1518039E+01  0.1256424E+07  0.1623555E+01  0.7156929E-04 -0.1561546E-03
  0.7958100E+00  0.6188642E+06 -0.1515925E+01  0.3573011E+06 -0.1515925E+01  0.3211818E+06 -0.8807160E-01  0.7323946E+06 -0.1515927E+01  0.1268544E+07  0.1625665E+01  0.7571701E-04  0.6888025E-03
  0.8020905E+00  0.6263886E+06 -0.1513759E+01  0.3616456E+06 -0.1513760E+01  0.3165865E+06 -0.9035427E-01  0.7392138E+06 -0.1513765E+01  0.1280357E+07  0.1627829E+01  0.8025382E-04 -0.3597462E-03
  0.8083712E+00  0.6338899E+06 -0.1511538E+01  0.3659762E+06 -0.1511538E+01  0.3120024E+06 -0.9268122E-01  0.7458838E+06 -0.1511544E+01  0.1291910E+07  0.1630049E+01  0.8510806E-04  0.6784552E-03
  0.8146517E+00  0.6413708E+06 -0.1509257E+01  0.3702957E+06 -0.1509257E+01  0.3076086E+06 -0.9494718E-01  0.7524234E+06 -0.1509266E+01  0.1303236E+07  0.1632326E+01  0.9013899E-04  0.2479697E-03
  0.8209324E+00  0.6488602E+06 -0.1506918E+01  0.3746192E+06 -0.1506918E+01  0.3032414E+06 -0.9725656E-01  0.7589248E+06 -0.1506927E+01  0.1314498E+07  0.1634664E+01  0.9527937E-04  0.3176762E-03
  0.8272130E+00  0.6562694E+06 -0.1504519E+01  0.3788971E+06 -0.1504519E+01  0.2988965E+06 -0.9960517E-01  0.7652484E+06 -0.1504533E+01  0.1325449E+07  0.1637060E+01  0.1009468E-03 -0.5581653E-03
  0.8334936E+00  0.6636211E+06 -0.1502061E+01  0.3831418E+06 -0.1502061E+01  0.2945842E+06 -0.1019878E+00  0.7713844E+06 -0.1502077E+01  0.1336077E+07  0.1639515E+01  0.1065596E-03 -0.7865928E-04
  0.8397742E+00  0.6709889E+06 -0.1499541E+01  0.3873957E+06 -0.1499541E+01  0.2902904E+06 -0.1044206E+00  0.7775033E+06 -0.1499558E+01  0.1346676E+07  0.1642034E+01  0.1127031E-03 -0.6197629E-04
  0.8460548E+00  0.6783326E+06 -0.1496961E+01  0.3916351E+06 -0.1496961E+01  0.2860297E+06 -0.1068930E+00  0.7835024E+06 -0.1496982E+01  0.1357068E+07  0.1644611E+01  0.1190066E-03  0.4382453E-03
  0.8523354E+00  0.6856108E+06 -0.1494321E+01  0.3958373E+06 -0.1494321E+01  0.2817981E+06 -0.1094071E+00  0.7893339E+06 -0.1494344E+01  0.1367168E+07  0.1647249E+01  0.1257625E-03 -0.2665947E-03
  0.8586160E+00  0.6928769E+06 -0.1491617E+01  0.4000326E+06 -0.1491617E+01  0.2775930E+06 -0.1119727E+00  0.7951286E+06 -0.1491640E+01  0.1377204E+07  0.1649952E+01  0.1326152E-03 -0.6355582E-03
  0.8648966E+00  0.7000578E+06 -0.1488854E+01  0.4041782E+06 -0.1488854E+01  0.2734169E+06 -0.1145799E+00  0.8006946E+06 -0.1488879E+01  0.1386845E+07  0.1652714E+01  0.1399499E-03  0.3393890E-03
  0.8711772E+00  0.7071791E+06 -0.1486030E+01  0.4082900E+06 -0.1486030E+01  0.2692679E+06 -0.1172306E+00  0.8060734E+06 -0.1486057E+01  0.1396161E+07  0.1655535E+01  0.1476894E-03  0.1450370E-03
  0.8774578E+00  0.7142448E+06 -0.1483145E+01  0.4123691E+06 -0.1483144E+01  0.2651438E+06 -0.1199318E+00  0.8113820E+06 -0.1483172E+01  0.1405356E+07  0.1658421E+01  0.1555381E-03 -0.1526875E-03
  0.8837384E+00  0.7212472E+06 -0.1480196E+01  0.4164119E+06 -0.1480196E+01  0.2610497E+06 -0.1226834E+00  0.8165859E+06 -0.1480225E+01  0.1414371E+07  0.1661367E+01  0.1638973E-03 -0.5398235E-04
  0.8900191E+00  0.7282239E+06 -0.1477186E+01  0.4204402E+06 -0.1477186E+01  0.2569829E+06 -0.1254852E+00  0.8217098E+06 -0.1477216E+01  0.1423245E+07  0.1664377E+01  0.1725178E-03  0.2132374E-03
  0.8962996E+00  0.7350768E+06 -0.1474116E+01  0.4243964E+06 -0.1474117E+01  0.2529418E+06 -0.1283429E+00  0.8266126E+06 -0.1474148E+01  0.1431734E+07  0.1667446E+01  0.1817096E-03  0.6662936E-04
  0.9025802E+00  0.7417735E+06 -0.1470988E+01  0.4282627E+06 -0.1470988E+01  0.2489254E+06 -0.1312549E+00  0.8312379E+06 -0.1471019E+01  0.1439747E+07  0.1670574E+01  0.1909277E-03 -0.4316925E-03
  0.9088608E+00  0.7483999E+06 -0.1467798E+01  0.4320887E+06 -0.1467798E+01  0.2449347E+06 -0.1342232E+00  0.8357162E+06 -0.1467831E+01  0.1447504E+07  0.1673761E+01  0.2008666E-03 -0.2109618E-03
  0.9151415E+00  0.7549932E+06 -0.1464547E+01  0.4358952E+06 -0.1464547E+01  0.2409738E+06 -0.1372570E+00  0.8401384E+06 -0.1464581E+01  0.1455164E+07  0.1677012E+01  0.2111180E-03 -0.2205701E-05
  0.9214220E+00  0.7615413E+06 -0.1461235E+01  0.4396759E+06 -0.1461235E+01  0.2370372E+06 -0.1403540E+00  0.8444807E+06 -0.1461268E+01  0.1462686E+07  0.1680325E+01  0.2219159E-03 -0.4448541E-03
  0.9277027E+00  0.7679415E+06 -0.1457870E+01  0.4433709E+06 -0.1457869E+01  0.2331242E+06 -0.1435142E+00  0.8485124E+06 -0.1457904E+01  0.1469668E+07  0.1683688E+01  0.2330908E-03 -0.1578236E-03
  0.9339832E+00  0.7742499E+06 -0.1454447E+01  0.4470129E+06 -0.1454447E+01  0.2292344E+06 -0.1467401E+00  0.8523711E+06 -0.1454484E+01  0.1476350E+07  0.1687109E+01  0.2447403E-03 -0.2568612E-03
  0.9402639E+00  0.7804529E+06 -0.1450966E+01  0.4505942E+06 -0.1450966E+01  0.2255398E+06 -0.1497431E+00  0.8560406E+06 -0.1451007E+01  0.1482707E+07  0.1690585E+01  0.2568245E-03 -0.3880142E-03
  0.9465445E+00  0.7865988E+06 -0.1447429E+01  0.4541427E+06 -0.1447428E+01  0.2218738E+06 -0.1528105E+00  0.8596482E+06 -0.1447469E+01  0.1488955E+07  0.1694122E+01  0.2694902E-03  0.7602909E-04
  0.9528251E+00  0.7925601E+06 -0.1443836E+01  0.4575845E+06 -0.1443837E+01  0.2182333E+06 -0.1559405E+00  0.8630188E+06 -0.1443879E+01  0.1494794E+07  0.1697714E+01  0.2826342E-03 -0.4530833E-03
  0.9591056E+00  0.7983735E+06 -0.1440194E+01  0.4609407E+06 -0.1440194E+01  0.2146299E+06 -0.1591076E+00  0.8661154E+06 -0.1440240E+01  0.1500158E+07  0.1701352E+01  0.2961471E-03 -0.4780091E-03
  0.9653863E+00  0.8040943E+06 -0.1436497E+01  0.4642436E+06 -0.1436497E+01  0.2110618E+06 -0.1623311E+00  0.8690956E+06 -0.1436544E+01  0.1505319E+07  0.1705049E+01  0.3104941E-03 -0.1559733E-03
  0.9716668E+00  0.8097328E+06 -0.1432747E+01  0.4674990E+06 -0.1432747E+01  0.2075236E+06 -0.1656131E+00  0.8719739E+06 -0.1432791E+01  0.1510304E+07  0.1708803E+01  0.3250623E-03 -0.2134469E-03
  0.9779475E+00  0.8152482E+06 -0.1428952E+01  0.4706836E+06 -0.1428952E+01  0.2040276E+06 -0.1689442E+00  0.8746164E+06 -0.1428996E+01  0.1514882E+07  0.1712596E+01  0.3405818E-03 -0.2502072E-03
  0.9842281E+00  0.8205947E+06 -0.1425109E+01  0.4737702E+06 -0.1425109E+01  0.2005654E+06 -0.1723314E+00  0.8770494E+06 -0.1425155E+01  0.1519094E+07  0.1716438E+01  0.3564681E-03 -0.2194617E-03
  0.9905087E+00  0.8258590E+06 -0.1421217E+01  0.4768097E+06 -0.1421217E+01  0.1971395E+06 -0.1757827E+00  0.8794143E+06 -0.1421257E+01  0.1523190E+07  0.1720335E+01  0.3732266E-03 -0.2308178E-03
  0.9967892E+00  0.8309487E+06 -0.1417298E+01  0.4797482E+06 -0.1417299E+01  0.1937490E+06 -0.1792861E+00  0.8813901E+06 -0.1417340E+01  0.1526614E+07  0.1724253E+01  0.3903644E-03 -0.8111642E-04
  0.1003070E+01  0.8359263E+06 -0.1413355E+01  0.4826221E+06 -0.1413356E+01  0.1903919E+06 -0.1828421E+00  0.8830637E+06 -0.1413404E+01  0.1529513E+07  0.1728189E+01  0.4082847E-03 -0.5702654E-05
  0.1009351E+01  0.8407521E+06 -0.1409381E+01  0.4854082E+06 -0.1409381E+01  0.1870673E+06 -0.1864629E+00  0.8845219E+06 -0.1409437E+01  0.1532037E+07  0.1732157E+01  0.4268617E-03  0.2989052E-03
  0.1015631E+01  0.8454453E+06 -0.1405374E+01  0.4881179E+06 -0.1405374E+01  0.1837747E+06 -0.1901457E+00  0.8858061E+06 -0.1405433E+01  0.1534260E+07  0.1736160E+01  0.4461104E-03  0.1158646E-03
  0.1021912E+01  0.8500037E+06 -0.1401334E+01  0.4907495E+06 -0.1401334E+01  0.1805218E+06 -0.1938892E+00  0.8868924E+06 -0.1401399E+01  0.1536143E+07  0.1740192E+01  0.4660280E-03  0.3497246E-03
  0.1028192E+01  0.8544521E+06 -0.1397265E+01  0.4933180E+06 -0.1397265E+01  0.1773008E+06 -0.1977010E+00  0.8878150E+06 -0.1397335E+01  0.1537742E+07  0.1744258E+01  0.4866270E-03  0.4526214E-03
  0.1034473E+01  0.8586798E+06 -0.1393172E+01  0.4957590E+06 -0.1393172E+01  0.1741122E+06 -0.2015875E+00  0.8883998E+06 -0.1393246E+01  0.1538755E+07  0.1748347E+01  0.5081712E-03  0.5250669E-03
  0.1040753E+01  0.8626648E+06 -0.1389061E+01  0.4980594E+06 -0.1389061E+01  0.1709541E+06 -0.2055511E+00  0.8886069E+06 -0.1389144E+01  0.1539114E+07  0.1752448E+01  0.5302808E-03  0.5347878E-03
  0.1047034E+01  0.8664767E+06 -0.1384929E+01  0.5002604E+06 -0.1384929E+01  0.1678256E+06 -0.2095951E+00  0.8885677E+06 -0.1385025E+01  0.1539045E+07  0.1756568E+01  0.5531043E-03  0.5354516E-03
  0.1053315E+01  0.8701722E+06 -0.1380774E+01  0.5023938E+06 -0.1380774E+01  0.1647367E+06 -0.2137149E+00  0.8883704E+06 -0.1380881E+01  0.1538705E+07  0.1760713E+01  0.5769666E-03  0.4051568E-03
  0.1059595E+01  0.8737386E+06 -0.1376595E+01  0.5044530E+06 -0.1376595E+01  0.1616817E+06 -0.2179178E+00  0.8880517E+06 -0.1376704E+01  0.1538153E+07  0.1764889E+01  0.6016950E-03  0.4929844E-03
  0.1065876E+01  0.8771481E+06 -0.1372399E+01  0.5064216E+06 -0.1372400E+01  0.1586561E+06 -0.2222110E+00  0.8875339E+06 -0.1372511E+01  0.1537257E+07  0.1769082E+01  0.6270577E-03  0.4960657E-03
  0.1072156E+01  0.8803243E+06 -0.1368207E+01  0.5082550E+06 -0.1368207E+01  0.1556590E+06 -0.2265985E+00  0.8866124E+06 -0.1368332E+01  0.1535659E+07  0.1773259E+01  0.6535574E-03  0.3975764E-03
  0.1078437E+01  0.8833299E+06 -0.1364004E+01  0.5099904E+06 -0.1364004E+01  0.1526897E+06 -0.2310895E+00  0.8854722E+06 -0.1364145E+01  0.1533684E+07  0.1777448E+01  0.6806288E-03  0.3687641E-03
  0.1084718E+01  0.8861418E+06 -0.1359793E+01  0.5116141E+06 -0.1359793E+01  0.1498725E+06 -0.2350729E+00  0.8840728E+06 -0.1359952E+01  0.1531260E+07  0.1781640E+01  0.7089162E-03  0.3895201E-03
  0.1090998E+01  0.8888184E+06 -0.1355574E+01  0.5131592E+06 -0.1355574E+01  0.1470962E+06 -0.2391079E+00  0.8825349E+06 -0.1355746E+01  0.1528595E+07  0.1785847E+01  0.7381043E-03  0.2908395E-03
  0.1097279E+01  0.8912690E+06 -0.1351355E+01  0.5145741E+06 -0.1351355E+01  0.1443434E+06 -0.2432619E+00  0.8807429E+06 -0.1351536E+01  0.1525493E+07  0.1790056E+01  0.7682422E-03  0.2679133E-03
  0.1103559E+01  0.8934962E+06 -0.1347143E+01  0.5158600E+06 -0.1347144E+01  0.1416260E+06 -0.2474662E+00  0.8786772E+06 -0.1347337E+01  0.1521913E+07  0.1794255E+01  0.7992146E-03  0.1421663E-03
  0.1109840E+01  0.8954994E+06 -0.1342945E+01  0.5170164E+06 -0.1342945E+01  0.1389458E+06 -0.2517141E+00  0.8763036E+06 -0.1343157E+01  0.1517804E+07  0.1798434E+01  0.8315895E-03  0.2687834E-04
  0.1116121E+01  0.8973547E+06 -0.1338746E+01  0.5180878E+06 -0.1338747E+01  0.1362994E+06 -0.2560398E+00  0.8738228E+06 -0.1338964E+01  0.1513506E+07  0.1802629E+01  0.8646855E-03 -0.7108630E-04
  0.1122401E+01  0.8990508E+06 -0.1334558E+01  0.5190668E+06 -0.1334558E+01  0.1336854E+06 -0.2604327E+00  0.8711898E+06 -0.1334772E+01  0.1508946E+07  0.1806820E+01  0.8988683E-03 -0.1554159E-03
  0.1128682E+01  0.9005517E+06 -0.1330393E+01  0.5199335E+06 -0.1330393E+01  0.1311167E+06 -0.2648673E+00  0.8682816E+06 -0.1330623E+01  0.1503909E+07  0.1810969E+01  0.9342031E-03 -0.2901027E-03
  0.1134963E+01  0.9018188E+06 -0.1326251E+01  0.5206649E+06 -0.1326251E+01  0.1285818E+06 -0.2693737E+00  0.8651253E+06 -0.1326493E+01  0.1498442E+07  0.1815099E+01  0.9708476E-03 -0.2321477E-03
  0.1141243E+01  0.9029299E+06 -0.1322123E+01  0.5213066E+06 -0.1322123E+01  0.1260827E+06 -0.2739536E+00  0.8618671E+06 -0.1322360E+01  0.1492801E+07  0.1819233E+01  0.1008522E-02 -0.3582998E-03
  0.1147524E+01  0.9038359E+06 -0.1318029E+01  0.5218293E+06 -0.1318028E+01  0.1236211E+06 -0.2785867E+00  0.8583477E+06 -0.1318264E+01  0.1486703E+07  0.1823329E+01  0.1047527E-02 -0.5067686E-03
  0.1153804E+01  0.9045514E+06 -0.1313994E+01  0.5222422E+06 -0.1313993E+01  0.1211918E+06 -0.2832872E+00  0.8545149E+06 -0.1314240E+01  0.1480065E+07  0.1827351E+01  0.1087693E-02 -0.2534460E-03
  0.1160085E+01  0.9050716E+06 -0.1310011E+01  0.5225428E+06 -0.1310012E+01  0.1187942E+06 -0.2880642E+00  0.8503986E+06 -0.1310285E+01  0.1472935E+07  0.1831308E+01  0.1129315E-02 -0.8164324E-04
  0.1166366E+01  0.9053989E+06 -0.1306067E+01  0.5227320E+06 -0.1306067E+01  0.1164288E+06 -0.2929219E+00  0.8461436E+06 -0.1306357E+01  0.1465564E+07  0.1835236E+01  0.1172013E-02 -0.6833862E-04
  0.1172646E+01  0.9055451E+06 -0.1302169E+01  0.5228165E+06 -0.1302168E+01  0.1140949E+06 -0.2978675E+00  0.8417140E+06 -0.1302468E+01  0.1457893E+07  0.1839125E+01  0.1215732E-02  0.9116103E-04
  0.1178927E+01  0.9055145E+06 -0.1298316E+01  0.5227989E+06 -0.1298316E+01  0.1118018E+06 -0.3028612E+00  0.8371102E+06 -0.1298630E+01  0.1449920E+07  0.1842962E+01  0.1261090E-02  0.2562615E-03
  0.1185207E+01  0.9053318E+06 -0.1294513E+01  0.5226934E+06 -0.1294513E+01  0.1095394E+06 -0.3079416E+00  0.8323631E+06 -0.1294838E+01  0.1441697E+07  0.1846756E+01  0.1307700E-02  0.2250500E-03
  0.1191488E+01  0.9049724E+06 -0.1290758E+01  0.5224856E+06 -0.1290758E+01  0.1073094E+06 -0.3131026E+00  0.8274801E+06 -0.1291079E+01  0.1433239E+07  0.1850513E+01  0.1355837E-02  0.3303982E-03
  0.1197769E+01  0.9042912E+06 -0.1287096E+01  0.5220924E+06 -0.1287095E+01  0.1051092E+06 -0.3183750E+00  0.8221220E+06 -0.1287440E+01  0.1423960E+07  0.1854152E+01  0.1405180E-02  0.3976669E-03
  0.1204049E+01  0.9034042E+06 -0.1283496E+01  0.5215805E+06 -0.1283495E+01  0.1029382E+06 -0.3237637E+00  0.8165761E+06 -0.1283870E+01  0.1414353E+07  0.1857722E+01  0.1455842E-02  0.4490794E-03
  0.1210330E+01  0.9023509E+06 -0.1279959E+01  0.5209720E+06 -0.1279959E+01  0.1007972E+06 -0.3292636E+00  0.8108646E+06 -0.1280369E+01  0.1404461E+07  0.1861223E+01  0.1508131E-02  0.4699436E-03
  0.1216610E+01  0.9011624E+06 -0.1276481E+01  0.5202860E+06 -0.1276481E+01  0.9869695E+05 -0.3348129E+00  0.8050716E+06 -0.1276912E+01  0.1394426E+07  0.1864680E+01  0.1561827E-02  0.3828268E-03
  0.1222891E+01  0.8998311E+06 -0.1273061E+01  0.5195172E+06 -0.1273061E+01  0.9662901E+05 -0.3404520E+00  0.7991962E+06 -0.1273496E+01  0.1384250E+07  0.1868096E+01  0.1617140E-02  0.3317225E-03
  0.1229172E+01  0.8983553E+06 -0.1269706E+01  0.5186652E+06 -0.1269706E+01  0.9458994E+05 -0.3462118E+00  0.7932188E+06 -0.1270135E+01  0.1373897E+07  0.1871457E+01  0.1674074E-02  0.3766294E-03
  0.1235452E+01  0.8966464E+06 -0.1266459E+01  0.5176788E+06 -0.1266458E+01  0.9257760E+05 -0.3521121E+00  0.7869137E+06 -0.1266926E+01  0.1362975E+07  0.1874665E+01  0.1732635E-02  0.2762843E-03
  0.1241733E+01  0.8947867E+06 -0.1263288E+01  0.5166049E+06 -0.1263289E+01  0.9059298E+05 -0.3581548E+00  0.7804818E+06 -0.1263795E+01  0.1351836E+07  0.1877798E+01  0.1792850E-02  0.2290840E-03
  0.1248013E+01  0.8927368E+06 -0.1260206E+01  0.5154212E+06 -0.1260206E+01  0.8865762E+05 -0.3639562E+00  0.7738534E+06 -0.1260759E+01  0.1340356E+07  0.1880834E+01  0.1854647E-02  0.1069593E-03
  0.1254294E+01  0.8905414E+06 -0.1257200E+01  0.5141538E+06 -0.1257200E+01  0.8678973E+05 -0.3692143E+00  0.7671192E+06 -0.1257799E+01  0.1328691E+07  0.1883794E+01  0.1918317E-02  0.1893409E-04
  0.1260575E+01  0.8882252E+06 -0.1254270E+01  0.5128165E+06 -0.1254270E+01  0.8495361E+05 -0.3745568E+00  0.7603362E+06 -0.1254893E+01  0.1316942E+07  0.1886699E+01  0.1983794E-02 -0.1201832E-03
  0.1266855E+01  0.8857009E+06 -0.1251439E+01  0.5113590E+06 -0.1251439E+01  0.8314289E+05 -0.3800648E+00  0.7533856E+06 -0.1252088E+01  0.1304904E+07  0.1889505E+01  0.2051001E-02 -0.1516634E-03
  0.1273136E+01  0.8830069E+06 -0.1248700E+01  0.5098036E+06 -0.1248701E+01  0.8136084E+05 -0.3856496E+00  0.7463091E+06 -0.1249378E+01  0.1292647E+07  0.1892214E+01  0.2119722E-02 -0.2583441E-03
  0.1279416E+01  0.8801164E+06 -0.1246080E+01  0.5081346E+06 -0.1246080E+01  0.7960654E+05 -0.3913133E+00  0.7390051E+06 -0.1246821E+01  0.1279996E+07  0.1894772E+01  0.2190350E-02 -0.3626900E-03
  0.1285697E+01  0.8771294E+06 -0.1243551E+01  0.5064102E+06 -0.1243551E+01  0.7788477E+05 -0.3970009E+00  0.7316794E+06 -0.1244328E+01  0.1267308E+07  0.1897265E+01  0.2262771E-02 -0.4124082E-03
  0.1291978E+01  0.8740479E+06 -0.1241123E+01  0.5046312E+06 -0.1241122E+01  0.7618892E+05 -0.4027936E+00  0.7243124E+06 -0.1241915E+01  0.1254547E+07  0.1899679E+01  0.2337496E-02 -0.3024063E-03
  0.1298258E+01  0.8708577E+06 -0.1238803E+01  0.5027893E+06 -0.1238804E+01  0.7452498E+05 -0.4086304E+00  0.7168668E+06 -0.1239615E+01  0.1241651E+07  0.1901977E+01  0.2413854E-02 -0.2098882E-03
  0.1304539E+01  0.8675430E+06 -0.1236598E+01  0.5008754E+06 -0.1236598E+01  0.7289721E+05 -0.4144657E+00  0.7093105E+06 -0.1237460E+01  0.1228563E+07  0.1904133E+01  0.2492693E-02 -0.4707624E-04
  0.1310819E+01  0.8640681E+06 -0.1234511E+01  0.4988690E+06 -0.1234511E+01  0.7129676E+05 -0.4204012E+00  0.7016306E+06 -0.1235421E+01  0.1215261E+07  0.1906171E+01  0.2573305E-02  0.6116396E-04
  0.1317100E+01  0.8605066E+06 -0.1232515E+01  0.4968129E+06 -0.1232515E+01  0.6972534E+05 -0.4263872E+00  0.6939657E+06 -0.1233432E+01  0.1201984E+07  0.1908161E+01  0.2655985E-02  0.1237797E-03
  0.1323381E+01  0.8568327E+06 -0.1230635E+01  0.4946920E+06 -0.1230635E+01  0.6818461E+05 -0.4323895E+00  0.6862179E+06 -0.1231554E+01  0.1188566E+07  0.1910038E+01  0.2741038E-02  0.1929893E-03
  0.1329661E+01  0.8530146E+06 -0.1228887E+01  0.4924876E+06 -0.1228887E+01  0.6666875E+05 -0.4385035E+00  0.6783017E+06 -0.1229851E+01  0.1174855E+07  0.1911741E+01  0.2828146E-02  0.2901177E-03
  0.1335942E+01  0.8490989E+06 -0.1227259E+01  0.4902266E+06 -0.1227259E+01  0.6517803E+05 -0.4447168E+00  0.6703269E+06 -0.1228278E+01  0.1161042E+07  0.1913315E+01  0.2917873E-02  0.3220512E-03
  0.1342222E+01  0.8450624E+06 -0.1225753E+01  0.4878967E+06 -0.1225753E+01  0.6371242E+05 -0.4510404E+00  0.6622868E+06 -0.1226836E+01  0.1147115E+07  0.1914757E+01  0.3009420E-02  0.3193721E-03
  0.1348503E+01  0.8409318E+06 -0.1224351E+01  0.4855118E+06 -0.1224352E+01  0.6227185E+05 -0.4574713E+00  0.6542573E+06 -0.1225472E+01  0.1133208E+07  0.1916121E+01  0.3103050E-02  0.3340462E-03
  0.1354784E+01  0.8366942E+06 -0.1223066E+01  0.4830653E+06 -0.1223066E+01  0.6085793E+05 -0.4640059E+00  0.6462017E+06 -0.1224212E+01  0.1119256E+07  0.1917379E+01  0.3198914E-02  0.2707575E-03
  0.1361064E+01  0.8323787E+06 -0.1221896E+01  0.4805736E+06 -0.1221896E+01  0.5947536E+05 -0.4705169E+00  0.6381390E+06 -0.1223071E+01  0.1105290E+07  0.1918523E+01  0.3297210E-02  0.1734291E-03
  0.1367345E+01  0.8279937E+06 -0.1220838E+01  0.4780417E+06 -0.1220837E+01  0.5811716E+05 -0.4771446E+00  0.6300849E+06 -0.1222021E+01  0.1091340E+07  0.1919571E+01  0.3397949E-02  0.1521165E-03
  0.1373626E+01  0.8235499E+06 -0.1219885E+01  0.4754763E+06 -0.1219885E+01  0.5678401E+05 -0.4838527E+00  0.6220676E+06 -0.1221038E+01  0.1077454E+07  0.1920554E+01  0.3501308E-02  0.8884159E-04
  0.1379906E+01  0.8189234E+06 -0.1219109E+01  0.4728052E+06 -0.1219109E+01  0.5547368E+05 -0.4907325E+00  0.6138041E+06 -0.1220311E+01  0.1063140E+07  0.1921281E+01  0.3606932E-02  0.6919855E-04
  0.1386187E+01  0.8141961E+06 -0.1218467E+01  0.4700758E+06 -0.1218467E+01  0.5418648E+05 -0.4977765E+00  0.6054851E+06 -0.1219732E+01  0.1048731E+07  0.1921861E+01  0.3714861E-02 -0.2732651E-04
  0.1392467E+01  0.8093866E+06 -0.1217957E+01  0.4672993E+06 -0.1217957E+01  0.5292254E+05 -0.5049937E+00  0.5971435E+06 -0.1219314E+01  0.1034285E+07  0.1922278E+01  0.3825239E-02 -0.1531413E-03
  0.1398748E+01  0.8045256E+06 -0.1217564E+01  0.4644927E+06 -0.1217563E+01  0.5168393E+05 -0.5123072E+00  0.5888362E+06 -0.1218999E+01  0.1019895E+07  0.1922593E+01  0.3938052E-02 -0.2913596E-03
  0.1405028E+01  0.7996289E+06 -0.1217280E+01  0.4616658E+06 -0.1217280E+01  0.5047485E+05 -0.5195541E+00  0.5805964E+06 -0.1218757E+01  0.1005623E+07  0.1922835E+01  0.4053853E-02 -0.4112304E-03
  0.1411309E+01  0.7947115E+06 -0.1217115E+01  0.4588264E+06 -0.1217116E+01  0.4928872E+05 -0.5268476E+00  0.5724152E+06 -0.1218601E+01  0.9914532E+06  0.1922991E+01  0.4171859E-02 -0.3792835E-03
  0.1417590E+01  0.7897628E+06 -0.1217070E+01  0.4559692E+06 -0.1217070E+01  0.4812496E+05 -0.5342677E+00  0.5642779E+06 -0.1218543E+01  0.9773585E+06  0.1923049E+01  0.4292821E-02 -0.2586030E-03
  0.1423870E+01  0.7847480E+06 -0.1217178E+01  0.4530740E+06 -0.1217178E+01  0.4698182E+05 -0.5418864E+00  0.5560861E+06 -0.1218704E+01  0.9631699E+06  0.1922888E+01  0.4416239E-02 -0.1552120E-03
  0.1430151E+01  0.7796797E+06 -0.1217427E+01  0.4501479E+06 -0.1217427E+01  0.4585952E+05 -0.5497029E+00  0.5478754E+06 -0.1219048E+01  0.9489499E+06  0.1922544E+01  0.4542773E-02 -0.5350811E-04
  0.1436431E+01  0.7745824E+06 -0.1217800E+01  0.4472050E+06 -0.1217800E+01  0.4475865E+05 -0.5577067E+00  0.5397033E+06 -0.1219504E+01  0.9347948E+06  0.1922088E+01  0.4672253E-02  0.1295648E-04
  0.1442712E+01  0.7694174E+06 -0.1218318E+01  0.4442228E+06 -0.1218319E+01  0.4368120E+05 -0.5651188E+00  0.5314799E+06 -0.1220149E+01  0.9205519E+06  0.1921444E+01  0.4804519E-02  0.1399547E-03
  0.1448993E+01  0.7642425E+06 -0.1218950E+01  0.4412348E+06 -0.1218950E+01  0.4263187E+05 -0.5720584E+00  0.5233340E+06 -0.1220883E+01  0.9064412E+06  0.1920710E+01  0.4939980E-02  0.2028557E-03
  0.1455273E+01  0.7590521E+06 -0.1219694E+01  0.4382388E+06 -0.1219694E+01  0.4160509E+05 -0.5790911E+00  0.5152641E+06 -0.1221681E+01  0.8924649E+06  0.1919912E+01  0.5078466E-02  0.2748965E-03
  0.1461554E+01  0.7538018E+06 -0.1220578E+01  0.4352075E+06 -0.1220578E+01  0.4059832E+05 -0.5863612E+00  0.5072042E+06 -0.1222621E+01  0.8785036E+06  0.1918971E+01  0.5219867E-02  0.2967105E-03
  0.1467834E+01  0.7485075E+06 -0.1221597E+01  0.4321510E+06 -0.1221597E+01  0.3961232E+05 -0.5937526E+00  0.4991684E+06 -0.1223698E+01  0.8645858E+06  0.1917895E+01  0.5364085E-02  0.2498419E-03