VARIABLES="w (rad/s)"
"abs(F   1   1)" "angle(F   1   1)"
"abs(F   1   2)" "angle(F   1   2)"
"abs(F   1   3)" "angle(F   1   3)"
"abs(F   1   4)" "angle(F   1   4)"
"abs(F   1   5)" "angle(F   1   5)"
"abs(F   1   6)" "angle(F   1   6)"
Zone t="FKforce - beta =  30.000",I=   500,F=POINT
  0.5257440E+00  0.1670408E+06 -0.1570797E+01  0.9644106E+05 -0.1570796E+01  0.5926595E+06 -0.1647763E-08  0.2150131E+06 -0.1570794E+01  0.3724138E+06  0.1570796E+01  0.1609327E-05  0.1591434E-02
  0.5320246E+00  0.1704841E+06 -0.1570796E+01  0.9842908E+05 -0.1570796E+01  0.5885889E+06 -0.4147897E-09  0.2190808E+06 -0.1570799E+01  0.3794587E+06  0.1570796E+01  0.1842165E-05  0.3033358E-02
  0.5383052E+00  0.1739430E+06 -0.1570796E+01  0.1004260E+06 -0.1570796E+01  0.5844966E+06  0.1096446E-08  0.2231487E+06 -0.1570800E+01  0.3865048E+06  0.1570797E+01  0.2008864E-05 -0.1159017E-02
  0.5445858E+00  0.1774173E+06 -0.1570796E+01  0.1024318E+06 -0.1570796E+01  0.5803838E+06 -0.2261014E-08  0.2272158E+06 -0.1570798E+01  0.3935491E+06  0.1570796E+01  0.2180228E-05 -0.1388295E-02
  0.5508664E+00  0.1809054E+06 -0.1570796E+01  0.1044458E+06 -0.1570797E+01  0.5762509E+06 -0.9003003E-09  0.2312810E+06 -0.1570794E+01  0.4005907E+06  0.1570796E+01  0.2246351E-05  0.1036484E-02
  0.5571470E+00  0.1844072E+06 -0.1570797E+01  0.1064676E+06 -0.1570796E+01  0.5720988E+06  0.3200592E-08  0.2353430E+06 -0.1570797E+01  0.4076254E+06  0.1570796E+01  0.2576970E-05  0.8131549E-03
  0.5634276E+00  0.1879218E+06 -0.1570797E+01  0.1084967E+06 -0.1570797E+01  0.5679282E+06  0.1289638E-08  0.2393994E+06 -0.1570801E+01  0.4146519E+06  0.1570797E+01  0.2885248E-05 -0.2663002E-02
  0.5697082E+00  0.1914484E+06 -0.1570796E+01  0.1105328E+06 -0.1570797E+01  0.5637399E+06 -0.5413415E-09  0.2434505E+06 -0.1570804E+01  0.4216681E+06  0.1570796E+01  0.3019350E-05 -0.1233806E-02
  0.5759888E+00  0.1949862E+06 -0.1570796E+01  0.1125752E+06 -0.1570794E+01  0.5595344E+06 -0.7090332E-09  0.2474935E+06 -0.1570797E+01  0.4286715E+06  0.1570796E+01  0.3364870E-05  0.8303347E-03
  0.5822694E+00  0.1985343E+06 -0.1570796E+01  0.1146239E+06 -0.1570797E+01  0.5553131E+06  0.1099113E-09  0.2515281E+06 -0.1570796E+01  0.4356592E+06  0.1570796E+01  0.3624708E-05  0.5138746E-03
  0.5885500E+00  0.2020924E+06 -0.1570796E+01  0.1166781E+06 -0.1570796E+01  0.5510767E+06 -0.2768905E-08  0.2555523E+06 -0.1570797E+01  0.4426293E+06  0.1570795E+01  0.3889220E-05  0.2933421E-02
  0.5948306E+00  0.2056594E+06 -0.1570796E+01  0.1187375E+06 -0.1570796E+01  0.5468256E+06  0.2009110E-08  0.2595652E+06 -0.1570801E+01  0.4495799E+06  0.1570796E+01  0.4134142E-05  0.7321467E-03
  0.6011113E+00  0.2092348E+06 -0.1570797E+01  0.1208017E+06 -0.1570796E+01  0.5425606E+06  0.5174754E-08  0.2635650E+06 -0.1570794E+01  0.4565081E+06  0.1570797E+01  0.4534611E-05 -0.7188333E-03
  0.6073918E+00  0.2128173E+06 -0.1570796E+01  0.1228702E+06 -0.1570796E+01  0.5382830E+06  0.8504145E-09  0.2675506E+06 -0.1570799E+01  0.4634114E+06  0.1570796E+01  0.5229387E-05 -0.2003559E-02
  0.6136725E+00  0.2164070E+06 -0.1570796E+01  0.1249426E+06 -0.1570796E+01  0.5339921E+06  0.1600196E-08  0.2715213E+06 -0.1570796E+01  0.4702886E+06  0.1570797E+01  0.5387701E-05  0.4321521E-04
  0.6199530E+00  0.2200025E+06 -0.1570796E+01  0.1270184E+06 -0.1570795E+01  0.5296908E+06  0.2131716E-08  0.2754743E+06 -0.1570795E+01  0.4771362E+06  0.1570796E+01  0.5846846E-05  0.9955396E-03
  0.6262337E+00  0.2236032E+06 -0.1570796E+01  0.1290974E+06 -0.1570797E+01  0.5253785E+06 -0.4763121E-08  0.2794107E+06 -0.1570799E+01  0.4839528E+06  0.1570796E+01  0.6278045E-05  0.3708649E-04
  0.6325143E+00  0.2272086E+06 -0.1570796E+01  0.1311789E+06 -0.1570797E+01  0.5210564E+06 -0.4626924E-08  0.2833268E+06 -0.1570801E+01  0.4907367E+06  0.1570796E+01  0.6725081E-05  0.4846974E-03
  0.6387949E+00  0.2308175E+06 -0.1570796E+01  0.1332626E+06 -0.1570796E+01  0.5167248E+06  0.2952982E-08  0.2872223E+06 -0.1570795E+01  0.4974840E+06  0.1570796E+01  0.7351874E-05  0.1900175E-02
  0.6450755E+00  0.2344297E+06 -0.1570796E+01  0.1353479E+06 -0.1570796E+01  0.5123848E+06 -0.2084596E-08  0.2910962E+06 -0.1570794E+01  0.5041934E+06  0.1570796E+01  0.7854776E-05  0.5928384E-03
  0.6513561E+00  0.2380442E+06 -0.1570796E+01  0.1374347E+06 -0.1570796E+01  0.5080375E+06 -0.1051217E-07  0.2949466E+06 -0.1570795E+01  0.5108634E+06  0.1570796E+01  0.8574687E-05 -0.8145976E-04
  0.6576367E+00  0.2416599E+06 -0.1570796E+01  0.1395224E+06 -0.1570796E+01  0.5036830E+06 -0.7270663E-08  0.2987732E+06 -0.1570797E+01  0.5174902E+06  0.1570797E+01  0.9207057E-05  0.5563422E-03
  0.6639173E+00  0.2452769E+06 -0.1570796E+01  0.1416106E+06 -0.1570796E+01  0.4993223E+06 -0.1014559E-07  0.3025735E+06 -0.1570799E+01  0.5240722E+06  0.1570796E+01  0.9750961E-05 -0.1647563E-02
  0.6701979E+00  0.2488937E+06 -0.1570796E+01  0.1436989E+06 -0.1570798E+01  0.4949565E+06 -0.1973027E-08  0.3063476E+06 -0.1570797E+01  0.5306088E+06  0.1570796E+01  0.1055748E-04  0.9483060E-03
  0.6764785E+00  0.2525099E+06 -0.1570797E+01  0.1457866E+06 -0.1570797E+01  0.4905861E+06 -0.1244127E-08  0.3100930E+06 -0.1570795E+01  0.5370962E+06  0.1570796E+01  0.1135376E-04 -0.5536871E-03
  0.6827591E+00  0.2561249E+06 -0.1570797E+01  0.1478738E+06 -0.1570795E+01  0.4862111E+06 -0.1506387E-08  0.3138088E+06 -0.1570792E+01  0.5435334E+06  0.1570797E+01  0.1214538E-04 -0.2683843E-03
  0.6890397E+00  0.2597378E+06 -0.1570796E+01  0.1499597E+06 -0.1570795E+01  0.4818340E+06 -0.1646744E-08  0.3174951E+06 -0.1570801E+01  0.5499168E+06  0.1570796E+01  0.1307391E-04 -0.3027497E-03
  0.6953203E+00  0.2633476E+06 -0.1570796E+01  0.1520438E+06 -0.1570797E+01  0.4774535E+06  0.1124946E-07  0.3211489E+06 -0.1570793E+01  0.5562461E+06  0.1570796E+01  0.1394097E-04  0.3006213E-03
  0.7016009E+00  0.2669542E+06 -0.1570796E+01  0.1541262E+06 -0.1570797E+01  0.4730718E+06  0.5805846E-08  0.3247702E+06 -0.1570795E+01  0.5625184E+06  0.1570796E+01  0.1493844E-04  0.1730048E-02
  0.7078815E+00  0.2705565E+06 -0.1570796E+01  0.1562058E+06 -0.1570796E+01  0.4686891E+06  0.9115768E-09  0.3283578E+06 -0.1570795E+01  0.5687319E+06  0.1570796E+01  0.1603179E-04 -0.2178459E-03
  0.7141621E+00  0.2741538E+06 -0.1570796E+01  0.1582827E+06 -0.1570797E+01  0.4643056E+06  0.3286368E-08  0.3319096E+06 -0.1570798E+01  0.5748838E+06  0.1570796E+01  0.1705904E-04 -0.9008023E-03
  0.7204427E+00  0.2777458E+06 -0.1570796E+01  0.1603564E+06 -0.1570796E+01  0.4599227E+06  0.5042883E-08  0.3354252E+06 -0.1570797E+01  0.5809734E+06  0.1570796E+01  0.1813658E-04 -0.2182397E-03
  0.7267233E+00  0.2813309E+06 -0.1570796E+01  0.1624265E+06 -0.1570797E+01  0.4555412E+06  0.2009757E-08  0.3389035E+06 -0.1570795E+01  0.5869984E+06  0.1570796E+01  0.1948979E-04 -0.3344961E-03
  0.7330039E+00  0.2849094E+06 -0.1570796E+01  0.1644926E+06 -0.1570796E+01  0.4511612E+06  0.0000000E+00  0.3423434E+06 -0.1570797E+01  0.5929559E+06  0.1570796E+01  0.2078060E-04  0.3025142E-03
  0.7392845E+00  0.2884800E+06 -0.1570796E+01  0.1665540E+06 -0.1570796E+01  0.4467836E+06 -0.1024576E-07  0.3457437E+06 -0.1570797E+01  0.5988455E+06  0.1570796E+01  0.2209005E-04 -0.9486063E-03
  0.7455651E+00  0.2920422E+06 -0.1570796E+01  0.1686108E+06 -0.1570797E+01  0.4424095E+06  0.3724941E-08  0.3491033E+06 -0.1570795E+01  0.6046651E+06  0.1570796E+01  0.2351497E-04 -0.6831952E-03
  0.7518457E+00  0.2955955E+06 -0.1570796E+01  0.1706621E+06 -0.1570797E+01  0.4380391E+06 -0.5016141E-08  0.3524209E+06 -0.1570797E+01  0.6104115E+06  0.1570796E+01  0.2512056E-04  0.7414822E-04
  0.7581264E+00  0.2991389E+06 -0.1570796E+01  0.1727079E+06 -0.1570796E+01  0.4336732E+06  0.8444400E-09  0.3556963E+06 -0.1570798E+01  0.6160836E+06  0.1570796E+01  0.2669916E-04 -0.1395284E-03
  0.7644069E+00  0.3026718E+06 -0.1570796E+01  0.1747476E+06 -0.1570796E+01  0.4293127E+06 -0.5260271E-08  0.3589279E+06 -0.1570797E+01  0.6216809E+06  0.1570796E+01  0.2838299E-04  0.1148445E-03
  0.7706876E+00  0.3061936E+06 -0.1570796E+01  0.1767810E+06 -0.1570797E+01  0.4249576E+06 -0.3159782E-08  0.3621142E+06 -0.1570796E+01  0.6272004E+06  0.1570796E+01  0.3014598E-04  0.1544688E-03
  0.7769681E+00  0.3097039E+06 -0.1570796E+01  0.1788077E+06 -0.1570796E+01  0.4206094E+06 -0.9867565E-08  0.3652545E+06 -0.1570795E+01  0.6326398E+06  0.1570796E+01  0.3222097E-04 -0.1445212E-04
  0.7832488E+00  0.3132015E+06 -0.1570796E+01  0.1808269E+06 -0.1570797E+01  0.4162680E+06  0.1129010E-07  0.3683484E+06 -0.1570796E+01  0.6379986E+06  0.1570796E+01  0.3411155E-04 -0.1638136E-03
  0.7895294E+00  0.3166861E+06 -0.1570796E+01  0.1828389E+06 -0.1570797E+01  0.4119348E+06  0.1155703E-07  0.3713952E+06 -0.1570800E+01  0.6432744E+06  0.1570796E+01  0.3619958E-04 -0.3344568E-03
  0.7958100E+00  0.3201571E+06 -0.1570796E+01  0.1848427E+06 -0.1570797E+01  0.4076095E+06 -0.2994786E-09  0.3743927E+06 -0.1570797E+01  0.6484670E+06  0.1570796E+01  0.3825501E-04 -0.9738046E-04
  0.8020905E+00  0.3236136E+06 -0.1570796E+01  0.1868384E+06 -0.1570797E+01  0.4032940E+06  0.4994273E-08  0.3773404E+06 -0.1570799E+01  0.6535728E+06  0.1570796E+01  0.4054140E-04 -0.3445820E-04
  0.8083712E+00  0.3270553E+06 -0.1570796E+01  0.1888253E+06 -0.1570796E+01  0.3989876E+06  0.6730903E-08  0.3802378E+06 -0.1570797E+01  0.6585911E+06  0.1570796E+01  0.4299823E-04 -0.1299573E-03
  0.8146517E+00  0.3304808E+06 -0.1570796E+01  0.1908035E+06 -0.1570796E+01  0.3946915E+06  0.1113409E-07  0.3830841E+06 -0.1570796E+01  0.6635208E+06  0.1570796E+01  0.4553236E-04  0.2147678E-03
  0.8209324E+00  0.3338912E+06 -0.1570796E+01  0.1927720E+06 -0.1570796E+01  0.3904063E+06  0.1485207E-07  0.3858778E+06 -0.1570795E+01  0.6683603E+06  0.1570796E+01  0.4807301E-04 -0.4068348E-03
  0.8272130E+00  0.3372841E+06 -0.1570796E+01  0.1947310E+06 -0.1570796E+01  0.3861326E+06  0.9800208E-08  0.3886189E+06 -0.1570798E+01  0.6731078E+06  0.1570796E+01  0.5103462E-04 -0.5109675E-03
  0.8334936E+00  0.3406594E+06 -0.1570796E+01  0.1966799E+06 -0.1570796E+01  0.3818710E+06  0.1006941E-07  0.3913058E+06 -0.1570795E+01  0.6777611E+06  0.1570796E+01  0.5379319E-04 -0.1038781E-03
  0.8397742E+00  0.3440166E+06 -0.1570796E+01  0.1986184E+06 -0.1570796E+01  0.3776217E+06 -0.7435001E-08  0.3939381E+06 -0.1570794E+01  0.6823205E+06  0.1570797E+01  0.5691871E-04  0.1472609E-03
  0.8460548E+00  0.3473555E+06 -0.1570796E+01  0.2005457E+06 -0.1570797E+01  0.3733860E+06  0.3596208E-08  0.3965144E+06 -0.1570797E+01  0.6867841E+06  0.1570796E+01  0.6012991E-04  0.5420978E-04
  0.8523354E+00  0.3506752E+06 -0.1570796E+01  0.2024623E+06 -0.1570796E+01  0.3691639E+06 -0.9920010E-09  0.3990354E+06 -0.1570797E+01  0.6911499E+06  0.1570796E+01  0.6350130E-04 -0.2199930E-04
  0.8586160E+00  0.3539747E+06 -0.1570796E+01  0.2043675E+06 -0.1570796E+01  0.3649562E+06  0.1906532E-07  0.4014990E+06 -0.1570796E+01  0.6954165E+06  0.1570796E+01  0.6690994E-04 -0.6263571E-04
  0.8648966E+00  0.3572540E+06 -0.1570796E+01  0.2062606E+06 -0.1570796E+01  0.3607631E+06 -0.8459174E-09  0.4039047E+06 -0.1570798E+01  0.6995837E+06  0.1570796E+01  0.7060822E-04 -0.8573501E-04
  0.8711772E+00  0.3605123E+06 -0.1570796E+01  0.2081420E+06 -0.1570796E+01  0.3565854E+06  0.3080981E-08  0.4062525E+06 -0.1570797E+01  0.7036496E+06  0.1570797E+01  0.7451046E-04  0.1437410E-03
  0.8774578E+00  0.3637494E+06 -0.1570797E+01  0.2100107E+06 -0.1570796E+01  0.3524237E+06 -0.1731869E-09  0.4085410E+06 -0.1570797E+01  0.7076139E+06  0.1570797E+01  0.7843879E-04  0.3799437E-03
  0.8837384E+00  0.3669640E+06 -0.1570796E+01  0.2118668E+06 -0.1570796E+01  0.3482784E+06 -0.1752482E-08  0.4107693E+06 -0.1570796E+01  0.7114742E+06  0.1570796E+01  0.8269679E-04 -0.1351427E-03
  0.8900191E+00  0.3701560E+06 -0.1570796E+01  0.2137098E+06 -0.1570796E+01  0.3441498E+06  0.3192310E-08  0.4129377E+06 -0.1570797E+01  0.7152292E+06  0.1570796E+01  0.8689892E-04  0.8037982E-04
  0.8962996E+00  0.3733252E+06 -0.1570796E+01  0.2155394E+06 -0.1570797E+01  0.3400390E+06  0.2153935E-08  0.4150454E+06 -0.1570799E+01  0.7188787E+06  0.1570796E+01  0.9160768E-04 -0.3049927E-04
  0.9025802E+00  0.3764704E+06 -0.1570796E+01  0.2173553E+06 -0.1570797E+01  0.3359458E+06  0.6540535E-08  0.4170910E+06 -0.1570796E+01  0.7224227E+06  0.1570796E+01  0.9614881E-04 -0.2566859E-03
  0.9088608E+00  0.3795917E+06 -0.1570797E+01  0.2191573E+06 -0.1570796E+01  0.3318711E+06 -0.2206947E-08  0.4190749E+06 -0.1570796E+01  0.7258594E+06  0.1570796E+01  0.1012338E-03 -0.1103966E-03
  0.9151415E+00  0.3826881E+06 -0.1570796E+01  0.2209450E+06 -0.1570796E+01  0.3278152E+06  0.1545358E-07  0.4209954E+06 -0.1570797E+01  0.7291858E+06  0.1570796E+01  0.1063915E-03 -0.1050448E-03
  0.9214220E+00  0.3857592E+06 -0.1570796E+01  0.2227182E+06 -0.1570796E+01  0.3237783E+06 -0.3016146E-08  0.4228531E+06 -0.1570798E+01  0.7324032E+06  0.1570796E+01  0.1118034E-03 -0.5831001E-04
  0.9277027E+00  0.3888048E+06 -0.1570796E+01  0.2244765E+06 -0.1570796E+01  0.3197619E+06 -0.2653189E-07  0.4246474E+06 -0.1570796E+01  0.7355109E+06  0.1570796E+01  0.1174165E-03 -0.1070791E-03
  0.9339832E+00  0.3918239E+06 -0.1570796E+01  0.2262196E+06 -0.1570796E+01  0.3157653E+06 -0.1314391E-07  0.4263772E+06 -0.1570797E+01  0.7385058E+06  0.1570796E+01  0.1233211E-03 -0.1888004E-04
  0.9402639E+00  0.3948167E+06 -0.1570796E+01  0.2279474E+06 -0.1570796E+01  0.3117893E+06  0.1154970E-07  0.4280419E+06 -0.1570797E+01  0.7413903E+06  0.1570796E+01  0.1293737E-03  0.6478828E-04
  0.9465445E+00  0.3977820E+06 -0.1570797E+01  0.2296595E+06 -0.1570796E+01  0.3078342E+06  0.3965456E-09  0.4296427E+06 -0.1570793E+01  0.7441622E+06  0.1570796E+01  0.1357151E-03  0.4803634E-04
  0.9528251E+00  0.4007193E+06 -0.1570796E+01  0.2313555E+06 -0.1570797E+01  0.3039009E+06  0.6025171E-09  0.4311772E+06 -0.1570797E+01  0.7468206E+06  0.1570796E+01  0.1423182E-03  0.8179932E-04
  0.9591056E+00  0.4036292E+06 -0.1570796E+01  0.2330353E+06 -0.1570797E+01  0.2999897E+06 -0.4882981E-08  0.4326457E+06 -0.1570796E+01  0.7493641E+06  0.1570797E+01  0.1491355E-03  0.6244809E-05
  0.9653863E+00  0.4065099E+06 -0.1570796E+01  0.2346984E+06 -0.1570796E+01  0.2961005E+06  0.8863585E-08  0.4340480E+06 -0.1570797E+01  0.7517931E+06  0.1570796E+01  0.1563253E-03  0.4766075E-04
  0.9716668E+00  0.4093619E+06 -0.1570796E+01  0.2363452E+06 -0.1570797E+01  0.2922341E+06  0.2923999E-08  0.4353836E+06 -0.1570797E+01  0.7541069E+06  0.1570796E+01  0.1635859E-03 -0.7685782E-04
  0.9779475E+00  0.4121844E+06 -0.1570796E+01  0.2379749E+06 -0.1570796E+01  0.2883904E+06  0.8465628E-09  0.4366526E+06 -0.1570795E+01  0.7563038E+06  0.1570796E+01  0.1713997E-03  0.2988497E-04
  0.9842281E+00  0.4149771E+06 -0.1570796E+01  0.2395870E+06 -0.1570796E+01  0.2845702E+06 -0.1008065E-07  0.4378542E+06 -0.1570797E+01  0.7583848E+06  0.1570796E+01  0.1794221E-03  0.8824156E-04
  0.9905087E+00  0.4177395E+06 -0.1570796E+01  0.2411820E+06 -0.1570796E+01  0.2807740E+06  0.8043127E-08  0.4389883E+06 -0.1570796E+01  0.7603490E+06  0.1570796E+01  0.1877667E-03  0.9671995E-04
  0.9967892E+00  0.4204709E+06 -0.1570796E+01  0.2427592E+06 -0.1570797E+01  0.2770018E+06 -0.3966159E-08  0.4400543E+06 -0.1570798E+01  0.7621966E+06  0.1570796E+01  0.1963405E-03 -0.2846043E-04
  0.1003070E+01  0.4231713E+06 -0.1570796E+01  0.2443181E+06 -0.1570797E+01  0.2732540E+06 -0.1943269E-07  0.4410528E+06 -0.1570798E+01  0.7639252E+06  0.1570796E+01  0.2053110E-03 -0.7938272E-04
  0.1009351E+01  0.4258403E+06 -0.1570796E+01  0.2458592E+06 -0.1570797E+01  0.2695312E+06  0.1313406E-07  0.4419834E+06 -0.1570799E+01  0.7655363E+06  0.1570796E+01  0.2146242E-03  0.7810771E-04
  0.1015631E+01  0.4284777E+06 -0.1570796E+01  0.2473817E+06 -0.1570796E+01  0.2658332E+06 -0.2066395E-08  0.4428450E+06 -0.1570796E+01  0.7670288E+06  0.1570796E+01  0.2242802E-03 -0.1038124E-04
  0.1021912E+01  0.4310823E+06 -0.1570796E+01  0.2488856E+06 -0.1570796E+01  0.2621609E+06  0.1396894E-07  0.4436385E+06 -0.1570793E+01  0.7684037E+06  0.1570796E+01  0.2341811E-03  0.0000000E+00
  0.1028192E+01  0.4336543E+06 -0.1570796E+01  0.2503705E+06 -0.1570796E+01  0.2585142E+06 -0.2219338E-07  0.4443629E+06 -0.1570795E+01  0.7696586E+06  0.1570796E+01  0.2445085E-03 -0.9712842E-04
  0.1034473E+01  0.4361934E+06 -0.1570796E+01  0.2518365E+06 -0.1570796E+01  0.2548934E+06 -0.1795903E-07  0.4450188E+06 -0.1570797E+01  0.7707949E+06  0.1570796E+01  0.2552867E-03 -0.4195366E-04
  0.1040753E+01  0.4386990E+06 -0.1570796E+01  0.2532830E+06 -0.1570796E+01  0.2512990E+06  0.1190105E-07  0.4456054E+06 -0.1570797E+01  0.7718106E+06  0.1570796E+01  0.2663191E-03  0.1748509E-05
  0.1047034E+01  0.4411712E+06 -0.1570796E+01  0.2547104E+06 -0.1570796E+01  0.2477310E+06 -0.9115938E-08  0.4461235E+06 -0.1570797E+01  0.7727083E+06  0.1570796E+01  0.2777446E-03  0.2347213E-04
  0.1053315E+01  0.4436092E+06 -0.1570796E+01  0.2561178E+06 -0.1570796E+01  0.2441899E+06  0.1174763E-07  0.4465722E+06 -0.1570798E+01  0.7734861E+06  0.1570796E+01  0.2897559E-03 -0.9963905E-04
  0.1059595E+01  0.4460128E+06 -0.1570796E+01  0.2575056E+06 -0.1570796E+01  0.2406758E+06 -0.1597674E-07  0.4469522E+06 -0.1570796E+01  0.7741444E+06  0.1570796E+01  0.3021350E-03 -0.3236595E-04
  0.1065876E+01  0.4483817E+06 -0.1570796E+01  0.2588734E+06 -0.1570796E+01  0.2371890E+06 -0.7462485E-08  0.4472635E+06 -0.1570797E+01  0.7746839E+06  0.1570796E+01  0.3148392E-03  0.5028753E-04
  0.1072156E+01  0.4507154E+06 -0.1570796E+01  0.2602205E+06 -0.1570796E+01  0.2337300E+06 -0.2611353E-08  0.4475058E+06 -0.1570795E+01  0.7751029E+06  0.1570796E+01  0.3281068E-03  0.1703084E-04
  0.1078437E+01  0.4530138E+06 -0.1570796E+01  0.2615475E+06 -0.1570796E+01  0.2302984E+06  0.4770474E-08  0.4476789E+06 -0.1570796E+01  0.7754029E+06  0.1570796E+01  0.3416305E-03  0.5043304E-04
  0.1084718E+01  0.4552766E+06 -0.1570796E+01  0.2628541E+06 -0.1570796E+01  0.2268949E+06 -0.1775412E-07  0.4477836E+06 -0.1570796E+01  0.7755834E+06  0.1570796E+01  0.3557289E-03  0.6414267E-04
  0.1090998E+01  0.4575035E+06 -0.1570796E+01  0.2641398E+06 -0.1570796E+01  0.2235196E+06 -0.3003704E-08  0.4478194E+06 -0.1570796E+01  0.7756449E+06  0.1570796E+01  0.3702939E-03 -0.7168008E-04
  0.1097279E+01  0.4596942E+06 -0.1570796E+01  0.2654045E+06 -0.1570796E+01  0.2201726E+06  0.2467214E-07  0.4477859E+06 -0.1570796E+01  0.7755872E+06  0.1570797E+01  0.3854334E-03 -0.4832599E-05
  0.1103559E+01  0.4618481E+06 -0.1570796E+01  0.2666481E+06 -0.1570796E+01  0.2168541E+06  0.1491723E-07  0.4476846E+06 -0.1570795E+01  0.7754112E+06  0.1570796E+01  0.4009008E-03  0.0000000E+00
  0.1109840E+01  0.4639657E+06 -0.1570796E+01  0.2678708E+06 -0.1570797E+01  0.2135643E+06 -0.4201155E-07  0.4475143E+06 -0.1570795E+01  0.7751174E+06  0.1570796E+01  0.4171422E-03 -0.6697879E-05
  0.1116121E+01  0.4660464E+06 -0.1570796E+01  0.2690720E+06 -0.1570796E+01  0.2103036E+06 -0.1538188E-07  0.4472759E+06 -0.1570796E+01  0.7747045E+06  0.1570796E+01  0.4336918E-03 -0.3006401E-04
  0.1122401E+01  0.4680892E+06 -0.1570796E+01  0.2702513E+06 -0.1570796E+01  0.2070718E+06 -0.4214977E-07  0.4469702E+06 -0.1570796E+01  0.7741750E+06  0.1570796E+01  0.4507052E-03 -0.1859731E-04
  0.1128682E+01  0.4700951E+06 -0.1570796E+01  0.2714096E+06 -0.1570796E+01  0.2038690E+06 -0.1856182E-07  0.4465962E+06 -0.1570796E+01  0.7735273E+06  0.1570796E+01  0.4683556E-03  0.2585043E-04
  0.1134963E+01  0.4720629E+06 -0.1570796E+01  0.2725456E+06 -0.1570796E+01  0.2006957E+06  0.8819418E-08  0.4461551E+06 -0.1570796E+01  0.7727627E+06  0.1570796E+01  0.4866095E-03  0.5741704E-05
  0.1141243E+01  0.4739930E+06 -0.1570796E+01  0.2736602E+06 -0.1570796E+01  0.1975519E+06  0.3213160E-07  0.4456460E+06 -0.1570797E+01  0.7718824E+06  0.1570796E+01  0.5054912E-03 -0.5527233E-05
  0.1147524E+01  0.4758850E+06 -0.1570796E+01  0.2747521E+06 -0.1570796E+01  0.1944377E+06 -0.3139060E-08  0.4450708E+06 -0.1570797E+01  0.7708853E+06  0.1570796E+01  0.5248105E-03  0.1242212E-04
  0.1153804E+01  0.4777384E+06 -0.1570796E+01  0.2758222E+06 -0.1570796E+01  0.1913530E+06 -0.2073280E-07  0.4444286E+06 -0.1570795E+01  0.7697732E+06  0.1570796E+01  0.5447511E-03 -0.2393482E-04
  0.1160085E+01  0.4795530E+06 -0.1570796E+01  0.2768701E+06 -0.1570796E+01  0.1882983E+06 -0.1653118E-07  0.4437201E+06 -0.1570796E+01  0.7685464E+06  0.1570796E+01  0.5654898E-03  0.5599565E-04
  0.1166366E+01  0.4813293E+06 -0.1570796E+01  0.2778957E+06 -0.1570796E+01  0.1852732E+06  0.3689652E-07  0.4429459E+06 -0.1570797E+01  0.7672042E+06  0.1570796E+01  0.5866876E-03  0.4762275E-05
  0.1172646E+01  0.4830661E+06 -0.1570796E+01  0.2788984E+06 -0.1570796E+01  0.1822783E+06  0.1674230E-07  0.4421056E+06 -0.1570797E+01  0.7657485E+06  0.1570796E+01  0.6085103E-03  0.1989645E-04
  0.1178927E+01  0.4847641E+06 -0.1570796E+01  0.2798789E+06 -0.1570796E+01  0.1793135E+06 -0.1429606E-07  0.4412001E+06 -0.1570796E+01  0.7641816E+06  0.1570796E+01  0.6310660E-03  0.0000000E+00
  0.1185207E+01  0.4864231E+06 -0.1570796E+01  0.2808365E+06 -0.1570796E+01  0.1763787E+06 -0.2768369E-07  0.4402302E+06 -0.1570797E+01  0.7625008E+06  0.1570797E+01  0.6542699E-03 -0.3131597E-04
  0.1191488E+01  0.4880423E+06 -0.1570796E+01  0.2817712E+06 -0.1570796E+01  0.1734738E+06 -0.3166567E-08  0.4391958E+06 -0.1570797E+01  0.7607089E+06  0.1570796E+01  0.6782254E-03 -0.3432939E-04
  0.1197769E+01  0.4896218E+06 -0.1570796E+01  0.2826832E+06 -0.1570796E+01  0.1705996E+06  0.7513139E-08  0.4380969E+06 -0.1570796E+01  0.7588069E+06  0.1570796E+01  0.7027406E-03  0.2252963E-04
  0.1204049E+01  0.4911615E+06 -0.1570796E+01  0.2835723E+06 -0.1570796E+01  0.1677554E+06  0.6912851E-08  0.4369352E+06 -0.1570796E+01  0.7567942E+06  0.1570796E+01  0.7280717E-03  0.2430410E-04
  0.1210330E+01  0.4926615E+06 -0.1570796E+01  0.2844382E+06 -0.1570796E+01  0.1649416E+06 -0.1739193E-07  0.4357099E+06 -0.1570797E+01  0.7546729E+06  0.1570796E+01  0.7541273E-03  0.2099444E-04
  0.1216610E+01  0.4941214E+06 -0.1570796E+01  0.2852812E+06 -0.1570796E+01  0.1621579E+06  0.3575737E-07  0.4344229E+06 -0.1570796E+01  0.7524422E+06  0.1570796E+01  0.7809522E-03 -0.8347833E-05
  0.1222891E+01  0.4955412E+06 -0.1570796E+01  0.2861006E+06 -0.1570796E+01  0.1594047E+06 -0.2641972E-07  0.4330735E+06 -0.1570795E+01  0.7501052E+06  0.1570796E+01  0.8084979E-03 -0.4607668E-05
  0.1229172E+01  0.4969204E+06 -0.1570796E+01  0.2868971E+06 -0.1570796E+01  0.1566819E+06  0.1129690E-07  0.4316625E+06 -0.1570796E+01  0.7476608E+06  0.1570796E+01  0.8367859E-03  0.3784118E-04
  0.1235452E+01  0.4982592E+06 -0.1570796E+01  0.2876702E+06 -0.1570796E+01  0.1539894E+06 -0.1545802E-07  0.4301907E+06 -0.1570795E+01  0.7451121E+06  0.1570796E+01  0.8659391E-03  0.2581214E-04
  0.1241733E+01  0.4995574E+06 -0.1570796E+01  0.2884197E+06 -0.1570796E+01  0.1513272E+06  0.6049984E-08  0.4286585E+06 -0.1570797E+01  0.7424587E+06  0.1570796E+01  0.8958410E-03  0.8316855E-05
  0.1248013E+01  0.5008157E+06 -0.1570796E+01  0.2891459E+06 -0.1570796E+01  0.1486955E+06  0.7798947E-08  0.4270667E+06 -0.1570797E+01  0.7397011E+06  0.1570796E+01  0.9265803E-03 -0.1005118E-05
  0.1254294E+01  0.5020325E+06 -0.1570796E+01  0.2898487E+06 -0.1570796E+01  0.1460940E+06  0.2715569E-07  0.4254156E+06 -0.1570797E+01  0.7368414E+06  0.1570796E+01  0.9581577E-03  0.1360790E-04
  0.1260575E+01  0.5032089E+06 -0.1570796E+01  0.2905276E+06 -0.1570796E+01  0.1435228E+06  0.4677910E-08  0.4237065E+06 -0.1570796E+01  0.7338805E+06  0.1570796E+01  0.9906124E-03 -0.2820445E-05
  0.1266855E+01  0.5043445E+06 -0.1570796E+01  0.2911834E+06 -0.1570796E+01  0.1409819E+06  0.0000000E+00  0.4219390E+06 -0.1570796E+01  0.7308199E+06  0.1570796E+01  0.1023991E-02  0.3274210E-04
  0.1273136E+01  0.5054389E+06 -0.1570796E+01  0.2918153E+06 -0.1570797E+01  0.1384712E+06  0.2027582E-07  0.4201140E+06 -0.1570796E+01  0.7276592E+06  0.1570796E+01  0.1058218E-02  0.1848180E-04
  0.1279416E+01  0.5064925E+06 -0.1570796E+01  0.2924233E+06 -0.1570796E+01  0.1359907E+06 -0.3141730E-07  0.4182336E+06 -0.1570797E+01  0.7244012E+06  0.1570796E+01  0.1093278E-02  0.1703726E-05
  0.1285697E+01  0.5075050E+06 -0.1570796E+01  0.2930082E+06 -0.1570796E+01  0.1335402E+06 -0.3565024E-07  0.4162962E+06 -0.1570797E+01  0.7210464E+06  0.1570796E+01  0.1129307E-02  0.2474055E-05
  0.1291978E+01  0.5084765E+06 -0.1570796E+01  0.2935689E+06 -0.1570796E+01  0.1311198E+06  0.3723932E-07  0.4143039E+06 -0.1570797E+01  0.7175948E+06  0.1570796E+01  0.1166400E-02  0.6387669E-05
  0.1298258E+01  0.5094065E+06 -0.1570796E+01  0.2941060E+06 -0.1570796E+01  0.1287295E+06  0.9008564E-08  0.4122574E+06 -0.1570796E+01  0.7140508E+06  0.1570796E+01  0.1204256E-02  0.6186875E-05
  0.1304539E+01  0.5102958E+06 -0.1570796E+01  0.2946193E+06 -0.1570796E+01  0.1263691E+06 -0.4733315E-07  0.4101569E+06 -0.1570797E+01  0.7104122E+06  0.1570796E+01  0.1243260E-02  0.0000000E+00
  0.1310819E+01  0.5111438E+06 -0.1570796E+01  0.2951089E+06 -0.1570797E+01  0.1240385E+06 -0.5658762E-08  0.4080035E+06 -0.1570796E+01  0.7066826E+06  0.1570796E+01  0.1283098E-02  0.1379094E-04
  0.1317100E+01  0.5119503E+06 -0.1570796E+01  0.2955745E+06 -0.1570796E+01  0.1217375E+06 -0.2506835E-08  0.4057982E+06 -0.1570796E+01  0.7028621E+06  0.1570796E+01  0.1324072E-02 -0.3516887E-05
  0.1323381E+01  0.5127155E+06 -0.1570796E+01  0.2960165E+06 -0.1570796E+01  0.1194664E+06  0.1890323E-07  0.4035409E+06 -0.1570795E+01  0.6989532E+06  0.1570796E+01  0.1366019E-02  0.3204359E-04
  0.1329661E+01  0.5134397E+06 -0.1570796E+01  0.2964346E+06 -0.1570796E+01  0.1172246E+06  0.1509939E-07  0.4012331E+06 -0.1570796E+01  0.6949565E+06  0.1570796E+01  0.1408985E-02  0.1189779E-04
  0.1335942E+01  0.5141228E+06 -0.1570796E+01  0.2968287E+06 -0.1570796E+01  0.1150124E+06  0.3608646E-07  0.3988756E+06 -0.1570797E+01  0.6908724E+06  0.1570796E+01  0.1453201E-02  0.1922630E-04
  0.1342222E+01  0.5147641E+06 -0.1570796E+01  0.2971994E+06 -0.1570796E+01  0.1128295E+06 -0.3380940E-07  0.3964686E+06 -0.1570797E+01  0.6867033E+06  0.1570796E+01  0.1498301E-02 -0.4972687E-05
  0.1348503E+01  0.5153646E+06 -0.1570796E+01  0.2975460E+06 -0.1570796E+01  0.1106757E+06  0.1102955E-07  0.3940134E+06 -0.1570796E+01  0.6824514E+06  0.1570796E+01  0.1544514E-02  0.1447170E-04
  0.1354784E+01  0.5159235E+06 -0.1570796E+01  0.2978688E+06 -0.1570796E+01  0.1085512E+06  0.2220970E-07  0.3915108E+06 -0.1570795E+01  0.6781172E+06  0.1570796E+01  0.1591914E-02 -0.8775496E-05
  0.1361064E+01  0.5164414E+06 -0.1570796E+01  0.2981676E+06 -0.1570796E+01  0.1064556E+06  0.3927374E-07  0.3889620E+06 -0.1570797E+01  0.6737010E+06  0.1570796E+01  0.1640518E-02 -0.1248940E-04
  0.1367345E+01  0.5169182E+06 -0.1570796E+01  0.2984426E+06 -0.1570796E+01  0.1043887E+06 -0.2134122E-07  0.3863670E+06 -0.1570796E+01  0.6692072E+06  0.1570796E+01  0.1690149E-02  0.2755149E-05
  0.1373626E+01  0.5173534E+06 -0.1570796E+01  0.2986943E+06 -0.1570796E+01  0.1023506E+06 -0.1222485E-07  0.3837264E+06 -0.1570796E+01  0.6646341E+06  0.1570796E+01  0.1741010E-02  0.1069865E-05
  0.1379906E+01  0.5177478E+06 -0.1570796E+01  0.2989218E+06 -0.1570796E+01  0.1003410E+06 -0.1216555E-08  0.3810433E+06 -0.1570796E+01  0.6599859E+06  0.1570796E+01  0.1793076E-02  0.1142679E-04
  0.1386187E+01  0.5181011E+06 -0.1570796E+01  0.2991257E+06 -0.1570796E+01  0.9835987E+05  0.8997671E-08  0.3783161E+06 -0.1570796E+01  0.6552618E+06  0.1570796E+01  0.1846358E-02  0.8070569E-05
  0.1392467E+01  0.5184132E+06 -0.1570796E+01  0.2993061E+06 -0.1570796E+01  0.9640691E+05 -0.1266199E-07  0.3755461E+06 -0.1570796E+01  0.6504656E+06  0.1570796E+01  0.1900972E-02 -0.7348788E-05
  0.1398748E+01  0.5186845E+06 -0.1570796E+01  0.2994627E+06 -0.1570796E+01  0.9448202E+05  0.4844982E-08  0.3727357E+06 -0.1570797E+01  0.6455973E+06  0.1570796E+01  0.1956636E-02 -0.1427945E-05
  0.1405028E+01  0.5189142E+06 -0.1570796E+01  0.2995955E+06 -0.1570796E+01  0.9258514E+05  0.1944737E-07  0.3698843E+06 -0.1570796E+01  0.6406584E+06  0.1570796E+01  0.2013711E-02 -0.1572468E-04
  0.1411309E+01  0.5191037E+06 -0.1570796E+01  0.2997047E+06 -0.1570796E+01  0.9071588E+05 -0.1345633E-07  0.3669933E+06 -0.1570796E+01  0.6356511E+06  0.1570796E+01  0.2072028E-02 -0.5843161E-05
  0.1417590E+01  0.5192522E+06 -0.1570796E+01  0.2997902E+06 -0.1570796E+01  0.8887436E+05 -0.3433789E-09  0.3640641E+06 -0.1570796E+01  0.6305770E+06  0.1570796E+01  0.2131684E-02 -0.8737906E-06
  0.1423870E+01  0.5193599E+06 -0.1570796E+01  0.2998526E+06 -0.1570796E+01  0.8706017E+05  0.3961038E-07  0.3610964E+06 -0.1570795E+01  0.6254372E+06  0.1570796E+01  0.2192673E-02 -0.4247430E-05
  0.1430151E+01  0.5194266E+06 -0.1570796E+01  0.2998911E+06 -0.1570796E+01  0.8527320E+05 -0.1216792E-07  0.3580920E+06 -0.1570796E+01  0.6202342E+06  0.1570796E+01  0.2255009E-02 -0.1156405E-04
  0.1436431E+01  0.5194529E+06 -0.1570796E+01  0.2999064E+06 -0.1570796E+01  0.8351338E+05  0.2923372E-08  0.3550524E+06 -0.1570796E+01  0.6149691E+06  0.1570796E+01  0.2318806E-02 -0.4418027E-05
  0.1442712E+01  0.5194388E+06 -0.1570796E+01  0.2998981E+06 -0.1570796E+01  0.8178028E+05 -0.4851151E-08  0.3519774E+06 -0.1570796E+01  0.6096435E+06  0.1570796E+01  0.2383891E-02  0.1562693E-05
  0.1448993E+01  0.5193845E+06 -0.1570796E+01  0.2998665E+06 -0.1570796E+01  0.8007384E+05  0.8003477E-08  0.3488688E+06 -0.1570796E+01  0.6042576E+06  0.1570796E+01  0.2450423E-02  0.6081056E-05
  0.1455273E+01  0.5192894E+06 -0.1570796E+01  0.2998120E+06 -0.1570796E+01  0.7839402E+05 -0.5839268E-08  0.3457268E+06 -0.1570796E+01  0.5988161E+06  0.1570796E+01  0.2518383E-02 -0.3698098E-05
  0.1461554E+01  0.5191541E+06 -0.1570796E+01  0.2997340E+06 -0.1570796E+01  0.7674042E+05 -0.1670226E-07  0.3425530E+06 -0.1570796E+01  0.5933191E+06  0.1570796E+01  0.2587851E-02  0.5398239E-05
  0.1467834E+01  0.5189788E+06 -0.1570796E+01  0.2996329E+06 -0.1570796E+01  0.7511280E+05  0.6500639E-08  0.3393480E+06 -0.1570797E+01  0.5877674E+06  0.1570796E+01  0.2658802E-02 -0.2802232E-05