 VARIABLES="Time (s)"
"AddedMass    1" "IRF    1"
"AddedMass    2" "IRF    2"
"AddedMass    3" "IRF    3"
"AddedMass    4" "IRF    4"
"AddedMass    5" "IRF    5"
"AddedMass    6" "IRF    6"
Zone t="DoF    1",I=   100,F=POINT
  0.0000000E+00  0.3918723E+06  0.5082238E+06  0.5502569E-04 -0.3556845E-04 -0.8586975E-02  0.1188033E-01 -0.4095591E-03  0.5005462E-04 -0.1221898E+07 -0.3026073E+06  0.1204834E-09 -0.9709924E-10
  0.1000000E+00  0.3918723E+06  0.4987196E+06  0.5502569E-04 -0.3537768E-04 -0.8586975E-02  0.1177192E-01 -0.4095591E-03  0.4903748E-04 -0.1221898E+07 -0.3026485E+06  0.1204834E-09 -0.9334952E-10
  0.2000000E+00  0.3918723E+06  0.4707436E+06  0.5502569E-04 -0.3488488E-04 -0.8586975E-02  0.1144916E-01 -0.4095591E-03  0.4607248E-04 -0.1221898E+07 -0.3025086E+06  0.1204834E-09 -0.8214303E-10
  0.3000000E+00  0.3918723E+06  0.4258611E+06  0.5502569E-04 -0.3431618E-04 -0.8586975E-02  0.1091939E-01 -0.4095591E-03  0.4140981E-04 -0.1221898E+07 -0.3014270E+06  0.1204834E-09 -0.6361192E-10
  0.4000000E+00  0.3918723E+06  0.3665528E+06  0.5502569E-04 -0.3401357E-04 -0.8586975E-02  0.1019448E-01 -0.4095591E-03  0.3543817E-04 -0.1221898E+07 -0.2982382E+06  0.1204834E-09 -0.3798641E-10
  0.5000000E+00  0.3918723E+06  0.2960265E+06  0.5502569E-04 -0.3438537E-04 -0.8586975E-02  0.9290233E-02 -0.4095591E-03  0.2864452E-04 -0.1221898E+07 -0.2915192E+06  0.1204834E-09 -0.5604166E-11
  0.6000000E+00  0.3918723E+06  0.2179874E+06  0.5502569E-04 -0.3584531E-04 -0.8586975E-02  0.8225771E-02 -0.4095591E-03  0.2156418E-04 -0.1221898E+07 -0.2797657E+06  0.1204834E-09  0.3306624E-10
  0.7000000E+00  0.3918723E+06  0.1363705E+06  0.5502569E-04 -0.3874700E-04 -0.8586975E-02  0.7022679E-02 -0.4095591E-03  0.1472496E-04 -0.1221898E+07 -0.2615883E+06  0.1204834E-09  0.7740229E-10
  0.8000000E+00  0.3918723E+06  0.5507230E+05  0.5502569E-04 -0.4332086E-04 -0.8586975E-02  0.5704298E-02 -0.4095591E-03  0.8591932E-05 -0.1221898E+07 -0.2358998E+06  0.1204834E-09  0.1265918E-09
  0.9000000E+00  0.3918723E+06 -0.2230551E+05  0.5502569E-04 -0.4962050E-04 -0.8586975E-02  0.4294871E-02 -0.4095591E-03  0.3517924E-05 -0.1221898E+07 -0.2020814E+06  0.1204834E-09  0.1795967E-09
  0.1000000E+01  0.3918723E+06 -0.9267366E+05  0.5502569E-04 -0.5748589E-04 -0.8586975E-02  0.2818889E-02 -0.4095591E-03 -0.2947905E-06 -0.1221898E+07 -0.1600988E+06  0.1204834E-09  0.2351157E-09
  0.1100000E+01  0.3918723E+06 -0.1536217E+06  0.5502569E-04 -0.6652769E-04 -0.8586975E-02  0.1300534E-02 -0.4095591E-03 -0.2817533E-05 -0.1221898E+07 -0.1105662E+06  0.1204834E-09  0.2915498E-09
  0.1200000E+01  0.3918723E+06 -0.2035184E+06  0.5502569E-04 -0.7613461E-04 -0.8586975E-02 -0.2367786E-03 -0.4095591E-03 -0.4200026E-05 -0.1221898E+07 -0.5474403E+05  0.1204834E-09  0.3469850E-09
  0.1300000E+01  0.3918723E+06 -0.2415446E+06  0.5502569E-04 -0.8550582E-04 -0.8586975E-02 -0.1770636E-02 -0.4095591E-03 -0.4755908E-05 -0.1221898E+07  0.5527667E+04  0.1204834E-09  0.3991931E-09
  0.1400000E+01  0.3918723E+06 -0.2676587E+06  0.5502569E-04 -0.9370434E-04 -0.8586975E-02 -0.3279829E-02 -0.4095591E-03 -0.4929913E-05 -0.1221898E+07  0.6795218E+05  0.1204834E-09  0.4456588E-09
  0.1500000E+01  0.3918723E+06 -0.2825033E+06  0.5502569E-04 -0.9972815E-04 -0.8586975E-02 -0.4744394E-02 -0.4095591E-03 -0.5249380E-05 -0.1221898E+07  0.1299463E+06  0.1204834E-09  0.4836487E-09
  0.1600000E+01  0.3918723E+06 -0.2872661E+06  0.5502569E-04 -0.1025928E-03 -0.8586975E-02 -0.6145615E-02 -0.4095591E-03 -0.6264479E-05 -0.1221898E+07  0.1888364E+06  0.1204834E-09  0.5103117E-09
  0.1700000E+01  0.3918723E+06 -0.2835100E+06  0.5502569E-04 -0.1014169E-03 -0.8586975E-02 -0.7466025E-02 -0.4095591E-03 -0.8482892E-05 -0.1221898E+07  0.2420665E+06  0.1204834E-09  0.5228228E-09
  0.1800000E+01  0.3918723E+06 -0.2729940E+06  0.5502569E-04 -0.9550463E-04 -0.8586975E-02 -0.8689443E-02 -0.4095591E-03 -0.1230605E-04 -0.1221898E+07  0.2873916E+06  0.1204834E-09  0.5185574E-09
  0.1900000E+01  0.3918723E+06 -0.2575005E+06  0.5502569E-04 -0.8441565E-04 -0.8586975E-02 -0.9800988E-02 -0.4095591E-03 -0.1797287E-04 -0.1221898E+07  0.3230426E+06  0.1204834E-09  0.4952932E-09
  0.2000000E+01  0.3918723E+06 -0.2386824E+06  0.5502569E-04 -0.6801705E-04 -0.8586975E-02 -0.1078728E-01 -0.4095591E-03 -0.2551800E-04 -0.1221898E+07  0.3478474E+06  0.1204834E-09  0.4514177E-09
  0.2100000E+01  0.3918723E+06 -0.2179497E+06  0.5502569E-04 -0.4651321E-04 -0.8586975E-02 -0.1163667E-01 -0.4095591E-03 -0.3474997E-04 -0.1221898E+07  0.3612926E+06  0.1204834E-09  0.3861292E-09
  0.2200000E+01  0.3918723E+06 -0.1963952E+06  0.5502569E-04 -0.2044824E-04 -0.8586975E-02 -0.1233938E-01 -0.4095591E-03 -0.4525092E-04 -0.1221898E+07  0.3635305E+06  0.1204834E-09  0.2996072E-09
  0.2300000E+01  0.3918723E+06 -0.1747672E+06  0.5502569E-04  0.9316710E-05 -0.8586975E-02 -0.1288796E-01 -0.4095591E-03 -0.5640156E-04 -0.1221898E+07  0.3553280E+06  0.1204834E-09  0.1931367E-09
  0.2400000E+01  0.3918723E+06 -0.1534827E+06  0.5502569E-04  0.4165066E-04 -0.8586975E-02 -0.1327748E-01 -0.4095591E-03 -0.6742842E-04 -0.1221898E+07  0.3379615E+06  0.1204834E-09  0.6915884E-10
  0.2500000E+01  0.3918723E+06 -0.1326813E+06  0.5502569E-04  0.7522048E-04 -0.8586975E-02 -0.1350575E-01 -0.4095591E-03 -0.7746980E-04 -0.1221898E+07  0.3130814E+06  0.1204834E-09 -0.6875118E-10
  0.2600000E+01  0.3918723E+06 -0.1123001E+06  0.5502569E-04  0.1085736E-03 -0.8586975E-02 -0.1357355E-01 -0.4095591E-03 -0.8565588E-04 -0.1221898E+07  0.2825490E+06  0.1204834E-09 -0.2160060E-09
  0.2700000E+01  0.3918723E+06 -0.9216421E+05  0.5502569E-04  0.1402281E-03 -0.8586975E-02 -0.1348453E-01 -0.4095591E-03 -0.9119289E-04 -0.1221898E+07  0.2482764E+06  0.1204834E-09 -0.3672062E-09
  0.2800000E+01  0.3918723E+06 -0.7207799E+05  0.5502569E-04  0.1687646E-03 -0.8586975E-02 -0.1324509E-01 -0.4095591E-03 -0.9344640E-04 -0.1221898E+07  0.2120698E+06  0.1204834E-09 -0.5164272E-09
  0.2900000E+01  0.3918723E+06 -0.5190607E+05  0.5502569E-04  0.1929115E-03 -0.8586975E-02 -0.1286414E-01 -0.4095591E-03 -0.9201138E-04 -0.1221898E+07  0.1755065E+06  0.1204834E-09 -0.6575616E-09
  0.3000000E+01  0.3918723E+06 -0.3163314E+05  0.5502569E-04  0.2116171E-03 -0.8586975E-02 -0.1235263E-01 -0.4095591E-03 -0.8676429E-04 -0.1221898E+07  0.1398453E+06  0.1204834E-09 -0.7847000E-09
  0.3100000E+01  0.3918723E+06 -0.1139827E+05  0.5502569E-04  0.2241064E-03 -0.8586975E-02 -0.1172302E-01 -0.4095591E-03 -0.7788738E-04 -0.1221898E+07  0.1059810E+06  0.1204834E-09 -0.8925151E-09
  0.3200000E+01  0.3918723E+06  0.8500025E+04  0.5502569E-04  0.2299156E-03 -0.8586975E-02 -0.1098865E-01 -0.4095591E-03 -0.6586615E-04 -0.1221898E+07  0.7444197E+05  0.1204834E-09 -0.9766182E-09
  0.3300000E+01  0.3918723E+06  0.2762596E+05  0.5502569E-04  0.2289065E-03 -0.8586975E-02 -0.1016315E-01 -0.4095591E-03 -0.5145367E-04 -0.1221898E+07  0.4542680E+05  0.1204834E-09 -0.1033847E-08
  0.3400000E+01  0.3918723E+06  0.4545075E+05  0.5502569E-04  0.2212577E-03 -0.8586975E-02 -0.9259827E-02 -0.4095591E-03 -0.3560815E-04 -0.1221898E+07  0.1887336E+05  0.1204834E-09 -0.1062474E-08
  0.3500000E+01  0.3918723E+06  0.6141335E+05  0.5502569E-04  0.2074389E-03 -0.8586975E-02 -0.8291239E-02 -0.4095591E-03 -0.1940657E-04 -0.1221898E+07 -0.5452609E+04  0.1204834E-09 -0.1062292E-08
  0.3600000E+01  0.3918723E+06  0.7498688E+05  0.5502569E-04  0.1881654E-03 -0.8586975E-02 -0.7268749E-02 -0.4095591E-03 -0.3943250E-05 -0.1221898E+07 -0.2786148E+05  0.1204834E-09 -0.1034575E-08
  0.3700000E+01  0.3918723E+06  0.8574209E+05  0.5502569E-04  0.1643462E-03 -0.8586975E-02 -0.6202419E-02 -0.4095591E-03  0.9776999E-05 -0.1221898E+07 -0.4864851E+05  0.1204834E-09 -0.9819265E-09
  0.3800000E+01  0.3918723E+06  0.9340059E+05  0.5502569E-04  0.1370210E-03 -0.8586975E-02 -0.5100875E-02 -0.4095591E-03  0.2094070E-04 -0.1221898E+07 -0.6801888E+05  0.1204834E-09 -0.9080035E-09
  0.3900000E+01  0.3918723E+06  0.9786920E+05  0.5502569E-04  0.1072965E-03 -0.8586975E-02 -0.3971511E-02 -0.4095591E-03  0.2901081E-04 -0.1221898E+07 -0.8603736E+05  0.1204834E-09 -0.8171561E-09
  0.4000000E+01  0.3918723E+06  0.9925298E+05  0.5502569E-04  0.7628620E-04 -0.8586975E-02 -0.2820668E-02 -0.4095591E-03  0.3378699E-04 -0.1221898E+07 -0.1026062E+06  0.1204834E-09 -0.7140236E-09
  0.4100000E+01  0.3918723E+06  0.9784480E+05  0.5502569E-04  0.4505376E-04 -0.8586975E-02 -0.1653986E-02 -0.4095591E-03  0.3543228E-04 -0.1221898E+07 -0.1174744E+06  0.1204834E-09 -0.6031005E-09
  0.4200000E+01  0.3918723E+06  0.9409426E+05  0.5502569E-04  0.1456763E-04 -0.8586975E-02 -0.4767695E-03 -0.4095591E-03  0.3446367E-04 -0.1221898E+07 -0.1302715E+06  0.1204834E-09 -0.4883435E-09
  0.4300000E+01  0.3918723E+06  0.8855870E+05  0.5502569E-04 -0.1433470E-04 -0.8586975E-02  0.7056659E-03 -0.4095591E-03  0.3170608E-04 -0.1221898E+07 -0.1405635E+06  0.1204834E-09 -0.3728510E-09
  0.4400000E+01  0.3918723E+06  0.8184510E+05  0.5502569E-04 -0.4097133E-04 -0.8586975E-02  0.1887722E-02 -0.4095591E-03  0.2821131E-04 -0.1221898E+07 -0.1479202E+06  0.1204834E-09 -0.2586362E-09
  0.4500000E+01  0.3918723E+06  0.7454788E+05  0.5502569E-04 -0.6482831E-04 -0.8586975E-02  0.3063298E-02 -0.4095591E-03  0.2515195E-04 -0.1221898E+07 -0.1519837E+06  0.1204834E-09 -0.1465418E-09
  0.4600000E+01  0.3918723E+06  0.6719117E+05  0.5502569E-04 -0.8556119E-04 -0.8586975E-02  0.4225731E-02 -0.4095591E-03  0.2369926E-04 -0.1221898E+07 -0.1525302E+06  0.1204834E-09 -0.3629304E-10
  0.4700000E+01  0.3918723E+06  0.6018319E+05  0.5502569E-04 -0.1029882E-03 -0.8586975E-02  0.5367825E-02 -0.4095591E-03  0.2489594E-04 -0.1221898E+07 -0.1495159E+06  0.1204834E-09  0.7331406E-10
  0.4800000E+01  0.3918723E+06  0.5378648E+05  0.5502569E-04 -0.1170740E-03 -0.8586975E-02  0.6481959E-02 -0.4095591E-03  0.2953791E-04 -0.1221898E+07 -0.1431003E+06  0.1204834E-09  0.1840955E-09
  0.4900000E+01  0.3918723E+06  0.4810702E+05  0.5502569E-04 -0.1279081E-03 -0.8586975E-02  0.7560398E-02 -0.4095591E-03  0.3807961E-04 -0.1221898E+07 -0.1336468E+06  0.1204834E-09  0.2980798E-09
  0.5000000E+01  0.3918723E+06  0.4310352E+05  0.5502569E-04 -0.1356787E-03 -0.8586975E-02  0.8595432E-02 -0.4095591E-03  0.5056710E-04 -0.1221898E+07 -0.1216970E+06  0.1204834E-09  0.4170569E-09
  0.5100000E+01  0.3918723E+06  0.3861380E+05  0.5502569E-04 -0.1406441E-03 -0.8586975E-02  0.9579682E-02 -0.4095591E-03  0.6661485E-04 -0.1221898E+07 -0.1079259E+06  0.1204834E-09  0.5421294E-09
  0.5200000E+01  0.3918723E+06  0.3439474E+05  0.5502569E-04 -0.1431029E-03 -0.8586975E-02  0.1050635E-01 -0.4095591E-03  0.8542135E-04 -0.1221898E+07 -0.9308126E+05  0.1204834E-09  0.6733133E-09
  0.5300000E+01  0.3918723E+06  0.3017040E+05  0.5502569E-04 -0.1433643E-03 -0.8586975E-02  0.1136926E-01 -0.4095591E-03  0.1058300E-03 -0.1221898E+07 -0.7791651E+05  0.1204834E-09  0.8092395E-09
  0.5400000E+01  0.3918723E+06  0.2568048E+05  0.5502569E-04 -0.1417207E-03 -0.8586975E-02  0.1216293E-01 -0.4095591E-03  0.1264258E-03 -0.1221898E+07 -0.6312303E+05  0.1204834E-09  0.9469914E-09
  0.5500000E+01  0.3918723E+06  0.2072502E+05  0.5502569E-04 -0.1384241E-03 -0.8586975E-02  0.1288255E-01 -0.4095591E-03  0.1456579E-03 -0.1221898E+07 -0.4927362E+05  0.1204834E-09  0.1082107E-08
  0.5600000E+01  0.3918723E+06  0.1519771E+05  0.5502569E-04 -0.1336671E-03 -0.8586975E-02  0.1352375E-01 -0.4095591E-03  0.1619816E-03 -0.1221898E+07 -0.3678007E+05  0.1204834E-09  0.1208745E-08
  0.5700000E+01  0.3918723E+06  0.9105602E+04  0.5502569E-04 -0.1275708E-03 -0.8586975E-02  0.1408254E-01 -0.4095591E-03  0.1739996E-03 -0.1221898E+07 -0.2587039E+05  0.1204834E-09  0.1320032E-08
  0.5800000E+01  0.3918723E+06  0.2572026E+04  0.5502569E-04 -0.1201788E-03 -0.8586975E-02  0.1455486E-01 -0.4095591E-03  0.1805915E-03 -0.1221898E+07 -0.1658959E+05  0.1204834E-09  0.1408528E-08
  0.5900000E+01  0.3918723E+06 -0.4176351E+04  0.5502569E-04 -0.1114602E-03 -0.8586975E-02  0.1493667E-01 -0.4095591E-03  0.1810186E-03 -0.1221898E+07 -0.8818529E+04  0.1204834E-09  0.1466820E-08
  0.6000000E+01  0.3918723E+06 -0.1083653E+05  0.5502569E-04 -0.1013221E-03 -0.8586975E-02  0.1522364E-01 -0.4095591E-03  0.1749902E-03 -0.1221898E+07 -0.2313011E+04  0.1204834E-09  0.1488139E-08
  0.6100000E+01  0.3918723E+06 -0.1706594E+05  0.5502569E-04 -0.8963032E-04 -0.8586975E-02  0.1541130E-01 -0.4095591E-03  0.1626908E-03 -0.1221898E+07  0.3247746E+04  0.1204834E-09  0.1466991E-08
  0.6200000E+01  0.3918723E+06 -0.2252471E+05  0.5502569E-04 -0.7623612E-04 -0.8586975E-02  0.1549507E-01 -0.4095591E-03  0.1447572E-03 -0.1221898E+07  0.8205785E+04  0.1204834E-09  0.1399716E-08
  0.6300000E+01  0.3918723E+06 -0.2691684E+05  0.5502569E-04 -0.6101198E-04 -0.8586975E-02  0.1547065E-01 -0.4095591E-03  0.1222151E-03 -0.1221898E+07  0.1287179E+05  0.1204834E-09  0.1284918E-08
  0.6400000E+01  0.3918723E+06 -0.3002596E+05  0.5502569E-04 -0.4388913E-04 -0.8586975E-02  0.1533441E-01 -0.4095591E-03  0.9637754E-04 -0.1221898E+07  0.1748083E+05  0.1204834E-09  0.1123757E-08
  0.6500000E+01  0.3918723E+06 -0.3174071E+05  0.5502569E-04 -0.2489490E-04 -0.8586975E-02  0.1508384E-01 -0.4095591E-03  0.6871773E-04 -0.1221898E+07  0.2216159E+05  0.1204834E-09  0.9200212E-09
  0.6600000E+01  0.3918723E+06 -0.3206707E+05  0.5502569E-04 -0.4188730E-05 -0.8586975E-02  0.1471817E-01 -0.4095591E-03  0.4072651E-04 -0.1221898E+07  0.2692259E+05  0.1204834E-09  0.6800173E-09
  0.6700000E+01  0.3918723E+06 -0.3112643E+05  0.5502569E-04  0.1791054E-04 -0.8586975E-02  0.1423882E-01 -0.4095591E-03  0.1377409E-04 -0.1221898E+07  0.3165639E+05  0.1204834E-09  0.4122498E-09
  0.6800000E+01  0.3918723E+06 -0.2913978E+05  0.5502569E-04  0.4090823E-04 -0.8586975E-02  0.1364966E-01 -0.4095591E-03 -0.1101471E-04 -0.1221898E+07  0.3615959E+05  0.1204834E-09  0.1269389E-09
  0.6900000E+01  0.3918723E+06 -0.2640059E+05  0.5502569E-04  0.6413242E-04 -0.8586975E-02  0.1295750E-01 -0.4095591E-03 -0.3285597E-04 -0.1221898E+07  0.4016703E+05  0.1204834E-09 -0.1646036E-09
  0.7000000E+01  0.3918723E+06 -0.2324010E+05  0.5502569E-04  0.8674766E-04 -0.8586975E-02  0.1217186E-01 -0.4095591E-03 -0.5136510E-04 -0.1221898E+07  0.4339272E+05  0.1204834E-09 -0.4506722E-09
  0.7100000E+01  0.3918723E+06 -0.1998926E+05  0.5502569E-04  0.1077885E-03 -0.8586975E-02  0.1130467E-01 -0.4095591E-03 -0.6657163E-04 -0.1221898E+07  0.4557345E+05  0.1204834E-09 -0.7198924E-09
  0.7200000E+01  0.3918723E+06 -0.1694270E+05  0.5502569E-04  0.1262094E-03 -0.8586975E-02  0.1037008E-01 -0.4095591E-03 -0.7888930E-04 -0.1221898E+07  0.4650921E+05  0.1204834E-09 -0.9619042E-09
  0.7300000E+01  0.3918723E+06 -0.1432818E+05  0.5502569E-04  0.1409486E-03 -0.8586975E-02  0.9383325E-02 -0.4095591E-03 -0.8904514E-04 -0.1221898E+07  0.4609358E+05  0.1204834E-09 -0.1167955E-08
  0.7400000E+01  0.3918723E+06 -0.1228630E+05  0.5502569E-04  0.1510055E-03 -0.8586975E-02  0.8360189E-02 -0.4095591E-03 -0.9797662E-04 -0.1221898E+07  0.4433207E+05  0.1204834E-09 -0.1331355E-08
  0.7500000E+01  0.3918723E+06 -0.1086122E+05  0.5502569E-04  0.1555201E-03 -0.8586975E-02  0.7315826E-02 -0.4095591E-03 -0.1067074E-03 -0.1221898E+07  0.4134521E+05  0.1204834E-09 -0.1447769E-08
  0.7600000E+01  0.3918723E+06 -0.1000429E+05  0.5502569E-04  0.1538550E-03 -0.8586975E-02  0.6263901E-02 -0.4095591E-03 -0.1162133E-03 -0.1221898E+07  0.3735696E+05  0.1204834E-09 -0.1515313E-08
  0.7700000E+01  0.3918723E+06 -0.9588927E+04  0.5502569E-04  0.1456644E-03 -0.8586975E-02  0.5215707E-02 -0.4095591E-03 -0.1272961E-03 -0.1221898E+07  0.3266963E+05  0.1204834E-09 -0.1534487E-08
  0.7800000E+01  0.3918723E+06 -0.9434205E+04  0.5502569E-04  0.1309528E-03 -0.8586975E-02  0.4179526E-02 -0.4095591E-03 -0.1404749E-03 -0.1221898E+07  0.2762972E+05  0.1204834E-09 -0.1507925E-08
  0.7900000E+01  0.3918723E+06 -0.9334508E+04  0.5502569E-04  0.1101063E-03 -0.8586975E-02  0.3160286E-02 -0.4095591E-03 -0.1559100E-03 -0.1221898E+07  0.2258875E+05  0.1204834E-09 -0.1440034E-08
  0.8000000E+01  0.3918723E+06 -0.9090339E+04  0.5502569E-04  0.8390135E-04 -0.8586975E-02  0.2159504E-02 -0.4095591E-03 -0.1733635E-03 -0.1221898E+07  0.1786444E+05  0.1204834E-09 -0.1336532E-08
  0.8100000E+01  0.3918723E+06 -0.8536808E+04  0.5502569E-04  0.5348155E-04 -0.8586975E-02  0.1175569E-02 -0.4095591E-03 -0.1922015E-03 -0.1221898E+07  0.1370737E+05  0.1204834E-09 -0.1203949E-08
  0.8200000E+01  0.3918723E+06 -0.7566111E+04  0.5502569E-04  0.2030536E-04 -0.8586975E-02  0.2044277E-03 -0.4095591E-03 -0.2114399E-03 -0.1221898E+07  0.1027700E+05  0.1204834E-09 -0.1049147E-08
  0.8300000E+01  0.3918723E+06 -0.6140982E+04  0.5502569E-04 -0.1393681E-04 -0.8586975E-02 -0.7596348E-03 -0.4095591E-03 -0.2298257E-03 -0.1221898E+07  0.7630132E+04  0.1204834E-09 -0.8788663E-09
  0.8400001E+01  0.3918723E+06 -0.4298199E+04  0.5502569E-04 -0.4742359E-04 -0.8586975E-02 -0.1722858E-02 -0.4095591E-03 -0.2459452E-03 -0.1221898E+07  0.5722708E+04  0.1204834E-09 -0.6993859E-09
  0.8500000E+01  0.3918723E+06 -0.2141793E+04  0.5502569E-04 -0.7832465E-04 -0.8586975E-02 -0.2690950E-02 -0.4095591E-03 -0.2583512E-03 -0.1221898E+07  0.4424189E+04  0.1204834E-09 -0.5162752E-09
  0.8600000E+01  0.3918723E+06  0.1729025E+03  0.5502569E-04 -0.1049275E-03 -0.8586975E-02 -0.3668029E-02 -0.4095591E-03 -0.2656942E-03 -0.1221898E+07  0.3542494E+04  0.1204834E-09 -0.3342567E-09
  0.8700000E+01  0.3918723E+06  0.2461464E+04  0.5502569E-04 -0.1257599E-03 -0.8586975E-02 -0.4655733E-02 -0.4095591E-03 -0.2668444E-03 -0.1221898E+07  0.2855695E+04  0.1204834E-09 -0.1572048E-09
  0.8800000E+01  0.3918723E+06  0.4535986E+04  0.5502569E-04 -0.1397007E-03 -0.8586975E-02 -0.5652655E-02 -0.4095591E-03 -0.2609931E-03 -0.1221898E+07  0.2145843E+04  0.1204834E-09  0.1179098E-10
  0.8900001E+01  0.3918723E+06  0.6230745E+04  0.5502569E-04 -0.1460678E-03 -0.8586975E-02 -0.6654041E-02 -0.4095591E-03 -0.2477274E-03 -0.1221898E+07  0.1230985E+04  0.1204834E-09  0.1702665E-09
  0.9000000E+01  0.3918723E+06  0.7423751E+04  0.5502569E-04 -0.1446730E-03 -0.8586975E-02 -0.7651933E-02 -0.4095591E-03 -0.2270657E-03 -0.1221898E+07 -0.9605492E+01  0.1204834E-09  0.3162055E-09
  0.9100000E+01  0.3918723E+06  0.8052390E+04  0.5502569E-04 -0.1358427E-03 -0.8586975E-02 -0.8635702E-02 -0.4095591E-03 -0.1994583E-03 -0.1221898E+07 -0.1619650E+04  0.1204834E-09  0.4478618E-09
  0.9200000E+01  0.3918723E+06  0.8120239E+04  0.5502569E-04 -0.1203985E-03 -0.8586975E-02 -0.9592815E-02 -0.4095591E-03 -0.1657513E-03 -0.1221898E+07 -0.3561366E+04  0.1204834E-09  0.5635913E-09
  0.9300000E+01  0.3918723E+06  0.7695114E+04  0.5502569E-04 -0.9959839E-04 -0.8586975E-02 -0.1050992E-01 -0.4095591E-03 -0.1271141E-03 -0.1221898E+07 -0.5722872E+04  0.1204834E-09  0.6617682E-09
  0.9400001E+01  0.3918723E+06  0.6898430E+04  0.5502569E-04 -0.7504607E-04 -0.8586975E-02 -0.1137397E-01 -0.4095591E-03 -0.8495044E-04 -0.1221898E+07 -0.7935768E+04  0.1204834E-09  0.7407451E-09
  0.9500000E+01  0.3918723E+06  0.5887688E+04  0.5502569E-04 -0.4856944E-04 -0.8586975E-02 -0.1217339E-01 -0.4095591E-03 -0.4078795E-04 -0.1221898E+07 -0.1000066E+05  0.1204834E-09  0.7989158E-09
  0.9600000E+01  0.3918723E+06  0.4834325E+04  0.5502569E-04 -0.2208297E-04 -0.8586975E-02 -0.1289917E-01 -0.4095591E-03  0.3834133E-05 -0.1221898E+07 -0.1171660E+05  0.1204834E-09  0.8348246E-09
  0.9700000E+01  0.3918723E+06  0.3900375E+04  0.5502569E-04  0.2557372E-05 -0.8586975E-02 -0.1354547E-01 -0.4095591E-03  0.4746850E-04 -0.1221898E+07 -0.1291016E+05  0.1204834E-09  0.8473535E-09
  0.9800000E+01  0.3918723E+06  0.3216929E+04  0.5502569E-04  0.2369632E-04 -0.8586975E-02 -0.1411009E-01 -0.4095591E-03  0.8885333E-04 -0.1221898E+07 -0.1346120E+05  0.1204834E-09  0.8359211E-09
  0.9900001E+01  0.3918723E+06  0.2867131E+04  0.5502569E-04  0.4000240E-04 -0.8586975E-02 -0.1459445E-01 -0.4095591E-03  0.1269774E-03 -0.1221898E+07 -0.1332024E+05  0.1204834E-09  0.8006826E-09
Zone t="DoF    2",I=   100,F=POINT
  0.0000000E+00 -0.4284710E-04 -0.1076561E-03  0.3918718E+06  0.5082235E+06 -0.8084245E-04  0.1004053E-03  0.1221896E+07  0.3026065E+06 -0.4233117E-03 -0.2288822E-03  0.5409563E-09  0.4944285E-08
  0.1000000E+00 -0.4284710E-04 -0.1047855E-03  0.3918718E+06  0.4987192E+06 -0.8084245E-04  0.9982807E-04  0.1221896E+07  0.3026478E+06 -0.4233117E-03 -0.2255214E-03  0.5409563E-09  0.4707282E-08
  0.2000000E+00 -0.4284710E-04 -0.9624396E-04  0.3918718E+06  0.4707432E+06 -0.8084245E-04  0.9810238E-04  0.1221896E+07  0.3025080E+06 -0.4233117E-03 -0.2155996E-03  0.5409563E-09  0.4018665E-08
  0.3000000E+00 -0.4284710E-04 -0.8225206E-04  0.3918718E+06  0.4258608E+06 -0.8084245E-04  0.9524742E-04  0.1221896E+07  0.3014265E+06 -0.4233117E-03 -0.1995876E-03  0.5409563E-09  0.2943336E-08
  0.4000000E+00 -0.4284710E-04 -0.6321082E-04  0.3918718E+06  0.3665526E+06 -0.8084245E-04  0.9129469E-04  0.1221896E+07  0.2982377E+06 -0.4233117E-03 -0.1782302E-03  0.5409563E-09  0.1582170E-08
  0.5000000E+00 -0.4284710E-04 -0.3974008E-04  0.3918718E+06  0.2960261E+06 -0.8084245E-04  0.8628788E-04  0.1221896E+07  0.2915188E+06 -0.4233117E-03 -0.1524928E-03  0.5409563E-09  0.6189151E-10
  0.6000000E+00 -0.4284710E-04 -0.1271965E-04  0.3918718E+06  0.2179870E+06 -0.8084245E-04  0.8028220E-04  0.1221896E+07  0.2797654E+06 -0.4233117E-03 -0.1234931E-03  0.5409563E-09 -0.1477531E-08
  0.7000000E+00 -0.4284710E-04  0.1668447E-04  0.3918718E+06  0.1363702E+06 -0.8084245E-04  0.7334443E-04  0.1221896E+07  0.2615881E+06 -0.4233117E-03 -0.9242493E-04  0.5409563E-09 -0.2896664E-08
  0.8000000E+00 -0.4284710E-04  0.4701836E-04  0.3918718E+06  0.5507200E+05 -0.8084245E-04  0.6555153E-04  0.1221896E+07  0.2358996E+06 -0.4233117E-03 -0.6048313E-04  0.5409563E-09 -0.4070094E-08
  0.9000000E+00 -0.4284710E-04  0.7657414E-04  0.3918718E+06 -0.2230576E+05 -0.8084245E-04  0.5699011E-04  0.1221896E+07  0.2020812E+06 -0.4233117E-03 -0.2879377E-04  0.5409563E-09 -0.4898220E-08
  0.1000000E+01 -0.4284710E-04  0.1034643E-03  0.3918718E+06 -0.9267385E+05 -0.8084245E-04  0.4775537E-04  0.1221896E+07  0.1600987E+06 -0.4233117E-03  0.1642621E-05  0.5409563E-09 -0.5316179E-08
  0.1100000E+01 -0.4284710E-04  0.1257373E-03  0.3918718E+06 -0.1536218E+06 -0.8084245E-04  0.3794991E-04  0.1221896E+07  0.1105662E+06 -0.4233117E-03  0.2999150E-04  0.5409563E-09 -0.5299015E-08
  0.1200000E+01 -0.4284710E-04  0.1415247E-03  0.3918718E+06 -0.2035184E+06 -0.8084245E-04  0.2768248E-04  0.1221896E+07  0.5474412E+05 -0.4233117E-03  0.5560684E-04  0.5409563E-09 -0.4862714E-08
  0.1300000E+01 -0.4284710E-04  0.1492113E-03  0.3918718E+06 -0.2415446E+06 -0.8084245E-04  0.1706670E-04  0.1221896E+07 -0.5527518E+04 -0.4233117E-03  0.7803534E-04  0.5409563E-09 -0.4061042E-08
  0.1400000E+01 -0.4284710E-04  0.1476070E-03  0.3918718E+06 -0.2676586E+06 -0.8084245E-04  0.6219721E-05  0.1221896E+07 -0.6795202E+05 -0.4233117E-03  0.9700478E-04  0.5409563E-09 -0.2978730E-08
  0.1500000E+01 -0.4284710E-04  0.1361009E-03  0.3918718E+06 -0.2825032E+06 -0.8084245E-04 -0.4739214E-05  0.1221896E+07 -0.1299460E+06 -0.4233117E-03  0.1123996E-03  0.5409563E-09 -0.1721823E-08
  0.1600000E+01 -0.4284710E-04  0.1147792E-03  0.3918718E+06 -0.2872659E+06 -0.8084245E-04 -0.1568994E-04  0.1221896E+07 -0.1888362E+06 -0.4233117E-03  0.1242305E-03  0.5409563E-09 -0.4063030E-09
  0.1700000E+01 -0.4284710E-04  0.8448691E-04  0.3918718E+06 -0.2835098E+06 -0.8084245E-04 -0.2651259E-04  0.1221896E+07 -0.2420662E+06 -0.4233117E-03  0.1325998E-03  0.5409563E-09  0.8536903E-09
  0.1800000E+01 -0.4284710E-04  0.4682029E-04  0.3918718E+06 -0.2729937E+06 -0.8084245E-04 -0.3708871E-04  0.1221896E+07 -0.2873912E+06 -0.4233117E-03  0.1376700E-03  0.5409563E-09  0.1956844E-08
  0.1900000E+01 -0.4284710E-04  0.4045892E-05  0.3918718E+06 -0.2575002E+06 -0.8084245E-04 -0.4730193E-04  0.1221896E+07 -0.3230422E+06 -0.4233117E-03  0.1396388E-03  0.5409563E-09  0.2823693E-08
  0.2000000E+01 -0.4284710E-04 -0.4105284E-04  0.3918718E+06 -0.2386820E+06 -0.8084245E-04 -0.5703876E-04  0.1221896E+07 -0.3478472E+06 -0.4233117E-03  0.1387219E-03  0.5409563E-09  0.3402846E-08
  0.2100000E+01 -0.4284710E-04 -0.8538883E-04  0.3918718E+06 -0.2179493E+06 -0.8084245E-04 -0.6618942E-04  0.1221896E+07 -0.3612921E+06 -0.4233117E-03  0.1351436E-03  0.5409563E-09  0.3673908E-08
  0.2200000E+01 -0.4284710E-04 -0.1258268E-03  0.3918718E+06 -0.1963948E+06 -0.8084245E-04 -0.7464771E-04  0.1221896E+07 -0.3635301E+06 -0.4233117E-03  0.1291388E-03  0.5409563E-09  0.3646992E-08
  0.2300000E+01 -0.4284710E-04 -0.1594559E-03  0.3918718E+06 -0.1747666E+06 -0.8084245E-04 -0.8231184E-04  0.1221896E+07 -0.3553277E+06 -0.4233117E-03  0.1209575E-03  0.5409563E-09  0.3359115E-08
  0.2400000E+01 -0.4284710E-04 -0.1838506E-03  0.3918718E+06 -0.1534822E+06 -0.8084245E-04 -0.8908488E-04  0.1221896E+07 -0.3379612E+06 -0.4233117E-03  0.1108737E-03  0.5409563E-09  0.2868033E-08
  0.2500000E+01 -0.4284710E-04 -0.1972938E-03  0.3918718E+06 -0.1326809E+06 -0.8084245E-04 -0.9487493E-04  0.1221896E+07 -0.3130808E+06 -0.4233117E-03  0.9919512E-04  0.5409563E-09  0.2244463E-08
  0.2600000E+01 -0.4284710E-04 -0.1989354E-03  0.3918718E+06 -0.1122997E+06 -0.8084245E-04 -0.9959594E-04  0.1221896E+07 -0.2825485E+06 -0.4233117E-03  0.8626599E-04  0.5409563E-09  0.1563591E-08
  0.2700000E+01 -0.4284710E-04 -0.1888687E-03  0.3918718E+06 -0.9216383E+05 -0.8084245E-04 -0.1031696E-03  0.1221896E+07 -0.2482760E+06 -0.4233117E-03  0.7246733E-04  0.5409563E-09  0.8969461E-09
  0.2800000E+01 -0.4284710E-04 -0.1681163E-03  0.3918718E+06 -0.7207771E+05 -0.8084245E-04 -0.1055251E-03  0.1221896E+07 -0.2120694E+06 -0.4233117E-03  0.5820864E-04  0.5409563E-09  0.3054610E-09
  0.2900000E+01 -0.4284710E-04 -0.1385225E-03  0.3918718E+06 -0.5190579E+05 -0.8084245E-04 -0.1066027E-03  0.1221896E+07 -0.1755061E+06 -0.4233117E-03  0.4391213E-04  0.5409563E-09 -0.1655392E-09
  0.3000000E+01 -0.4284710E-04 -0.1025655E-03  0.3918718E+06 -0.3163297E+05 -0.8084245E-04 -0.1063543E-03  0.1221896E+07 -0.1398449E+06 -0.4233117E-03  0.2999254E-04  0.5409563E-09 -0.4890701E-09
  0.3100000E+01 -0.4284710E-04 -0.6310760E-04  0.3918718E+06 -0.1139814E+05 -0.8084245E-04 -0.1047468E-03  0.1221896E+07 -0.1059808E+06 -0.4233117E-03  0.1683368E-04  0.5409563E-09 -0.6568189E-09
  0.3200000E+01 -0.4284710E-04 -0.2311102E-04  0.3918718E+06  0.8500141E+04 -0.8084245E-04 -0.1017640E-03  0.1221896E+07 -0.7444177E+05 -0.4233117E-03  0.4766310E-05  0.5409563E-09 -0.6773017E-09
  0.3300000E+01 -0.4284710E-04  0.1465111E-04  0.3918718E+06  0.2762592E+05 -0.8084245E-04 -0.9741000E-04  0.1221896E+07 -0.4542657E+05 -0.4233117E-03 -0.5951842E-05  0.5409563E-09 -0.5723191E-09
  0.3400000E+01 -0.4284710E-04  0.4785558E-04  0.3918718E+06  0.4545067E+05 -0.8084245E-04 -0.9171061E-04  0.1221896E+07 -0.1887323E+05 -0.4233117E-03 -0.1514733E-04  0.5409563E-09 -0.3723218E-09
  0.3500000E+01 -0.4284710E-04  0.7483375E-04  0.3918718E+06  0.6141329E+05 -0.8084245E-04 -0.8471590E-04  0.1221896E+07  0.5452679E+04 -0.4233117E-03 -0.2273446E-04  0.5409563E-09 -0.1114545E-09
  0.3600000E+01 -0.4284710E-04  0.9469832E-04  0.3918718E+06  0.7498673E+05 -0.8084245E-04 -0.7650122E-04  0.1221896E+07  0.2786148E+05 -0.4233117E-03 -0.2870942E-04  0.5409563E-09  0.1770781E-09
  0.3700000E+01 -0.4284710E-04  0.1073786E-03  0.3918718E+06  0.8574190E+05 -0.8084245E-04 -0.6716819E-04  0.1221896E+07  0.4864839E+05 -0.4233117E-03 -0.3313469E-04  0.5409563E-09  0.4646557E-09
  0.3800000E+01 -0.4284710E-04  0.1135625E-03  0.3918718E+06  0.9340039E+05 -0.8084245E-04 -0.5684320E-04  0.1221896E+07  0.6801877E+05 -0.4233117E-03 -0.3611902E-04  0.5409563E-09  0.7295787E-09
  0.3900000E+01 -0.4284710E-04  0.1145517E-03  0.3918718E+06  0.9786895E+05 -0.8084245E-04 -0.4567692E-04  0.1221896E+07  0.8603716E+05 -0.4233117E-03 -0.3779208E-04  0.5409563E-09  0.9578623E-09
  0.4000000E+01 -0.4284710E-04  0.1120514E-03  0.3918718E+06  0.9925273E+05 -0.8084245E-04 -0.3384089E-04  0.1221896E+07  0.1026061E+06 -0.4233117E-03 -0.3828196E-04  0.5409563E-09  0.1142591E-08
  0.4100000E+01 -0.4284710E-04  0.1079168E-03  0.3918718E+06  0.9784448E+05 -0.8084245E-04 -0.2152368E-04  0.1221896E+07  0.1174741E+06 -0.4233117E-03 -0.3769733E-04  0.5409563E-09  0.1282100E-08
  0.4200000E+01 -0.4284710E-04  0.1038913E-03  0.3918718E+06  0.9409398E+05 -0.8084245E-04 -0.8926212E-05  0.1221896E+07  0.1302712E+06 -0.4233117E-03 -0.3611768E-04  0.5409563E-09  0.1377459E-08
  0.4300000E+01 -0.4284710E-04  0.1013652E-03  0.3918718E+06  0.8855841E+05 -0.8084245E-04  0.3743731E-05  0.1221896E+07  0.1405633E+06 -0.4233117E-03 -0.3359411E-04  0.5409563E-09  0.1429784E-08
  0.4400000E+01 -0.4284710E-04  0.1011842E-03  0.3918718E+06  0.8184488E+05 -0.8084245E-04  0.1627774E-04  0.1221896E+07  0.1479199E+06 -0.4233117E-03 -0.3016282E-04  0.5409563E-09  0.1437898E-08
  0.4500000E+01 -0.4284710E-04  0.1035336E-03  0.3918718E+06  0.7454763E+05 -0.8084245E-04  0.2847268E-04  0.1221896E+07  0.1519834E+06 -0.4233117E-03 -0.2586564E-04  0.5409563E-09  0.1396877E-08
  0.4600000E+01 -0.4284710E-04  0.1079085E-03  0.3918718E+06  0.6719093E+05 -0.8084245E-04  0.4013663E-04  0.1221896E+07  0.1525299E+06 -0.4233117E-03 -0.2077967E-04  0.5409563E-09  0.1297683E-08
  0.4700000E+01 -0.4284710E-04  0.1131758E-03  0.3918718E+06  0.6018301E+05 -0.8084245E-04  0.5109410E-04  0.1221896E+07  0.1495157E+06 -0.4233117E-03 -0.1504651E-04  0.5409563E-09  0.1128107E-08
  0.4800000E+01 -0.4284710E-04  0.1177211E-03  0.3918718E+06  0.5378623E+05 -0.8084245E-04  0.6119031E-04  0.1221896E+07  0.1431001E+06 -0.4233117E-03 -0.8899193E-05  0.5409563E-09  0.8748453E-09
  0.4900000E+01 -0.4284710E-04  0.1196598E-03  0.3918718E+06  0.4810691E+05 -0.8084245E-04  0.7029452E-04  0.1221896E+07  0.1336465E+06 -0.4233117E-03 -0.2677599E-05  0.5409563E-09  0.5264125E-09
  0.5000000E+01 -0.4284710E-04  0.1170918E-03  0.3918718E+06  0.4310339E+05 -0.8084245E-04  0.7830189E-04  0.1221896E+07  0.1216968E+06 -0.4233117E-03  0.3168861E-05  0.5409563E-09  0.7646279E-10