VARIABLES="X" "Y" "Z" "NX" "NY" "NZ" "A"
 ZONE N=        1056 , E=         480  , F=FEPOINT,ET=QUADRILATERAL
   0.4957224E+01   0.6526310E+00  -0.1000000E+02   0.0000000E+00   0.0000000E+00   0.0000000E+00   0.0000000E+00
   0.4957224E+01   0.6526310E+00  -0.9230769E+01   0.0000000E+00   0.0000000E+00   0.0000000E+00   0.0000000E+00
   0.4957224E+01   0.6526310E+00  -0.8461538E+01   0.0000000E+00   0.0000000E+00   0.0000000E+00   0.0000000E+00
   0.4957224E+01   0.6526310E+00  -0.7692307E+01   0.0000000E+00   0.0000000E+00   0.0000000E+00   0.0000000E+00
   0.4957224E+01   0.6526310E+00  -0.6923077E+01   0.0000000E+00   0.0000000E+00   0.0000000E+00   0.0000000E+00
   0.4957224E+01   0.6526310E+00  -0.6153846E+01   0.0000000E+00   0.0000000E+00   0.0000000E+00   0.0000000E+00
   0.4957224E+01   0.6526310E+00  -0.5384615E+01   0.0000000E+00   0.0000000E+00   0.0000000E+00   0.0000000E+00
   0.4957224E+01   0.6526310E+00  -0.4615385E+01   0.0000000E+00   0.0000000E+00   0.0000000E+00   0.0000000E+00
   0.4957224E+01   0.6526310E+00  -0.3846154E+01   0.0000000E+00   0.0000000E+00   0.0000000E+00   0.0000000E+00
   0.4957224E+01   0.6526310E+00  -0.3076923E+01   0.0000000E+00   0.0000000E+00   0.0000000E+00   0.0000000E+00
   0.4957224E+01   0.6526310E+00  -0.2307693E+01   0.0000000E+00   0.0000000E+00   0.0000000E+00   0.0000000E+00
   0.4957224E+01   0.6526310E+00  -0.1538462E+01   0.0000000E+00   0.0000000E+00   0.0000000E+00   0.0000000E+00
   0.4957224E+01   0.6526310E+00  -0.7692308E+00   0.0000000E+00   0.0000000E+00   0.0000000E+00   0.0000000E+00
   0.4957224E+01   0.6526310E+00   0.0000000E+00   0.0000000E+00   0.0000000E+00   0.0000000E+00   0.0000000E+00
   0.5000000E+01   0.0000000E+00  -0.1000000E+02   0.0000000E+00   0.0000000E+00   0.0000000E+00   0.0000000E+00
   0.5000000E+01   0.0000000E+00  -0.9230769E+01   0.0000000E+00   0.0000000E+00   0.0000000E+00   0.0000000E+00
   0.5000000E+01   0.0000000E+00  -0.8461538E+01   0.0000000E+00   0.0000000E+00   0.0000000E+00   0.0000000E+00
   0.5000000E+01   0.0000000E+00  -0.7692307E+01   0.0000000E+00   0.0000000E+00   0.0000000E+00   0.0000000E+00
   0.5000000E+01   0.0000000E+00  -0.6923077E+01   0.0000000E+00   0.0000000E+00   0.0000000E+00   0.0000000E+00
   0.5000000E+01   0.0000000E+00  -0.6153846E+01   0.0000000E+00   0.0000000E+00   0.0000000E+00   0.0000000E+00
   0.5000000E+01   0.0000000E+00  -0.5384615E+01   0.0000000E+00   0.0000000E+00   0.0000000E+00   0.0000000E+00
   0.5000000E+01   0.0000000E+00  -0.4615385E+01   0.0000000E+00   0.0000000E+00   0.0000000E+00   0.0000000E+00
   0.5000000E+01   0.0000000E+00  -0.3846154E+01   0.0000000E+00   0.0000000E+00   0.0000000E+00   0.0000000E+00
   0.5000000E+01   0.0000000E+00  -0.3076923E+01   0.0000000E+00   0.0000000E+00   0.0000000E+00   0.0000000E+00
   0.5000000E+01   0.0000000E+00  -0.2307693E+01   0.0000000E+00   0.0000000E+00   0.0000000E+00   0.0000000E+00
   0.5000000E+01   0.0000000E+00  -0.1538462E+01   0.0000000E+00   0.0000000E+00   0.0000000E+00   0.0000000E+00
   0.5000000E+01   0.0000000E+00  -0.7692308E+00   0.0000000E+00   0.0000000E+00   0.0000000E+00   0.0000000E+00
   0.5000000E+01   0.0000000E+00   0.0000000E+00   0.0000000E+00   0.0000000E+00   0.0000000E+00   0.0000000E+00
   0.4829629E+01   0.1294095E+01  -0.1000000E+02   0.0000000E+00   0.0000000E+00   0.0000000E+00   0.0000000E+00
   0.4829629E+01   0.1294095E+01  -0.9230769E+01   0.0000000E+00   0.0000000E+00   0.0000000E+00   0.0000000E+00
   0.4829629E+01   0.1294095E+01  -0.8461538E+01   0.0000000E+00   0.0000000E+00   0.0000000E+00   0.0000000E+00
   0.4829629E+01   0.1294095E+01  -0.7692307E+01   0.0000000E+00   0.0000000E+00   0.0000000E+00   0.0000000E+00
   0.4829629E+01   0.1294095E+01  -0.6923077E+01   0.0000000E+00   0.0000000E+00   0.0000000E+00   0.0000000E+00
   0.4829629E+01   0.1294095E+01  -0.6153846E+01   0.0000000E+00   0.0000000E+00   0.0000000E+00   0.0000000E+00
   0.4829629E+01   0.1294095E+01  -0.5384615E+01   0.0000000E+00   0.0000000E+00   0.0000000E+00   0.0000000E+00
   0.4829629E+01   0.1294095E+01  -0.4615385E+01   0.0000000E+00   0.0000000E+00   0.0000000E+00   0.0000000E+00
   0.4829629E+01   0.1294095E+01  -0.3846154E+01   0.0000000E+00   0.0000000E+00   0.0000000E+00   0.0000000E+00
   0.4829629E+01   0.1294095E+01  -0.3076923E+01   0.0000000E+00   0.0000000E+00   0.0000000E+00   0.0000000E+00
   0.4829629E+01   0.1294095E+01  -0.2307693E+01   0.0000000E+00   0.0000000E+00   0.0000000E+00   0.0000000E+00
   0.4829629E+01   0.1294095E+01  -0.1538462E+01   0.0000000E+00   0.0000000E+00   0.0000000E+00   0.0000000E+00
   0.4829629E+01   0.1294095E+01  -0.7692308E+00   0.0000000E+00   0.0000000E+00   0.0000000E+00   0.0000000E+00
   0.4829629E+01   0.1294095E+01   0.0000000E+00   0.0000000E+00   0.0000000E+00   0.0000000E+00   0.0000000E+00
   0.4957224E+01   0.6526310E+00  -0.1000000E+02   0.0000000E+00   0.0000000E+00   0.0000000E+00   0.0000000E+00
   0.4957224E+01   0.6526310E+00  -0.9230769E+01   0.0000000E+00   0.0000000E+00   0.0000000E+00   0.0000000E+00
   0.4957224E+01   0.6526310E+00  -0.8461538E+01   0.0000000E+00   0.0000000E+00   0.0000000E+00   0.0000000E+00
   0.4957224E+01   0.6526310E+00  -0.7692307E+01   0.0000000E+00   0.0000000E+00   0.0000000E+00   0.0000000E+00
   0.4957224E+01   0.6526310E+00  -0.6923077E+01   0.0000000E+00   0.0000000E+00   0.0000000E+00   0.0000000E+00
   0.4957224E+01   0.6526310E+00  -0.6153846E+01   0.0000000E+00   0.0000000E+00   0.0000000E+00   0.0000000E+00
   0.4957224E+01   0.6526310E+00  -0.5384615E+01   0.0000000E+00   0.0000000E+00   0.0000000E+00   0.0000000E+00
   0.4957224E+01   0.6526310E+00  -0.4615385E+01   0.0000000E+00   0.0000000E+00   0.0000000E+00   0.0000000E+00
   0.4957224E+01   0.6526310E+00  -0.3846154E+01   0.0000000E+00   0.0000000E+00   0.0000000E+00   0.0000000E+00
   0.4957224E+01   0.6526310E+00  -0.3076923E+01   0.0000000E+00   0.0000000E+00   0.0000000E+00   0.0000000E+00
   0.4957224E+01   0.6526310E+00  -0.2307693E+01   0.0000000E+00   0.0000000E+00   0.0000000E+00   0.0000000E+00
   0.4957224E+01   0.6526310E+00  -0.1538462E+01   0.0000000E+00   0.0000000E+00   0.0000000E+00   0.0000000E+00
   0.4957224E+01   0.6526310E+00  -0.7692308E+00   0.0000000E+00   0.0000000E+00   0.0000000E+00   0.0000000E+00
   0.4957224E+01   0.6526310E+00   0.0000000E+00   0.0000000E+00   0.0000000E+00   0.0000000E+00   0.0000000E+00
   0.4619398E+01   0.1913417E+01  -0.1000000E+02   0.0000000E+00   0.0000000E+00   0.0000000E+00   0.0000000E+00
   0.4619398E+01   0.1913417E+01  -0.9230769E+01   0.0000000E+00   0.0000000E+00   0.0000000E+00   0.0000000E+00
   0.4619398E+01   0.1913417E+01  -0.8461538E+01   0.0000000E+00   0.0000000E+00   0.0000000E+00   0.0000000E+00
   0.4619398E+01   0.1913417E+01  -0.7692307E+01   0.0000000E+00   0.0000000E+00   0.0000000E+00   0.0000000E+00
   0.4619398E+01   0.1913417E+01  -0.6923077E+01   0.0000000E+00   0.0000000E+00   0.0000000E+00   0.0000000E+00
   0.4619398E+01   0.1913417E+01  -0.6153846E+01   0.0000000E+00   0.0000000E+00   0.0000000E+00   0.0000000E+00
   0.4619398E+01   0.1913417E+01  -0.5384615E+01   0.0000000E+00   0.0000000E+00   0.0000000E+00   0.0000000E+00
   0.4619398E+01   0.1913417E+01  -0.4615385E+01   0.0000000E+00   0.0000000E+00   0.0000000E+00   0.0000000E+00
   0.4619398E+01   0.1913417E+01  -0.3846154E+01   0.0000000E+00   0.0000000E+00   0.0000000E+00   0.0000000E+00
   0.4619398E+01   0.1913417E+01  -0.3076923E+01   0.0000000E+00   0.0000000E+00   0.0000000E+00   0.0000000E+00
   0.4619398E+01   0.1913417E+01  -0.2307693E+01   0.0000000E+00   0.0000000E+00   0.0000000E+00   0.0000000E+00
   0.4619398E+01   0.1913417E+01  -0.1538462E+01   0.0000000E+00   0.0000000E+00   0.0000000E+00   0.0000000E+00
   0.4619398E+01   0.1913417E+01  -0.7692308E+00   0.0000000E+00   0.0000000E+00   0.0000000E+00   0.0000000E+00
   0.4619398E+01   0.1913417E+01   0.0000000E+00   0.0000000E+00   0.0000000E+00   0.0000000E+00   0.0000000E+00
   0.4829629E+01   0.1294095E+01  -0.1000000E+02   0.0000000E+00   0.0000000E+00   0.0000000E+00   0.0000000E+00
   0.4829629E+01   0.1294095E+01  -0.9230769E+01   0.0000000E+00   0.0000000E+00   0.0000000E+00   0.0000000E+00
   0.4829629E+01   0.1294095E+01  -0.8461538E+01   0.0000000E+00   0.0000000E+00   0.0000000E+00   0.0000000E+00
   0.4829629E+01   0.1294095E+01  -0.7692307E+01   0.0000000E+00   0.0000000E+00   0.0000000E+00   0.0000000E+00
   0.4829629E+01   0.1294095E+01  -0.6923077E+01   0.0000000E+00   0.0000000E+00   0.0000000E+00   0.0000000E+00
   0.4829629E+01   0.1294095E+01  -0.6153846E+01   0.0000000E+00   0.0000000E+00   0.0000000E+00   0.0000000E+00
   0.4829629E+01   0.1294095E+01  -0.5384615E+01   0.0000000E+00   0.0000000E+00   0.0000000E+00   0.0000000E+00
   0.4829629E+01   0.1294095E+01  -0.4615385E+01   0.0000000E+00   0.0000000E+00   0.0000000E+00   0.0000000E+00
   0.4829629E+01   0.1294095E+01  -0.3846154E+01   0.0000000E+00   0.0000000E+00   0.0000000E+00   0.0000000E+00
   0.4829629E+01   0.1294095E+01  -0.3076923E+01   0.0000000E+00   0.0000000E+00   0.0000000E+00   0.0000000E+00
   0.4829629E+01   0.1294095E+01  -0.2307693E+01   0.0000000E+00   0.0000000E+00   0.0000000E+00   0.0000000E+00
   0.4829629E+01   0.1294095E+01  -0.1538462E+01   0.0000000E+00   0.0000000E+00   0.0000000E+00   0.0000000E+00
   0.4829629E+01   0.1294095E+01  -0.7692308E+00   0.0000000E+00   0.0000000E+00   0.0000000E+00   0.0000000E+00
   0.4829629E+01   0.1294095E+01   0.0000000E+00   0.0000000E+00   0.0000000E+00   0.0000000E+00   0.0000000E+00
   0.4330127E+01   0.2500000E+01  -0.1000000E+02   0.0000000E+00   0.0000000E+00   0.0000000E+00   0.0000000E+00
   0.4330127E+01   0.2500000E+01  -0.9230769E+01   0.0000000E+00   0.0000000E+00   0.0000000E+00   0.0000000E+00
   0.4330127E+01   0.2500000E+01  -0.8461538E+01   0.0000000E+00   0.0000000E+00   0.0000000E+00   0.0000000E+00
   0.4330127E+01   0.2500000E+01  -0.7692307E+01   0.0000000E+00   0.0000000E+00   0.0000000E+00   0.0000000E+00
   0.4330127E+01   0.2500000E+01  -0.6923077E+01   0.0000000E+00   0.0000000E+00   0.0000000E+00   0.0000000E+00
   0.4330127E+01   0.2500000E+01  -0.6153846E+01   0.0000000E+00   0.0000000E+00   0.0000000E+00   0.0000000E+00
   0.4330127E+01   0.2500000E+01  -0.5384615E+01   0.0000000E+00   0.0000000E+00   0.0000000E+00   0.0000000E+00
   0.4330127E+01   0.2500000E+01  -0.4615385E+01   0.0000000E+00   0.0000000E+00   0.0000000E+00   0.0000000E+00
   0.4330127E+01   0.2500000E+01  -0.3846154E+01   0.0000000E+00   0.0000000E+00   0.0000000E+00   0.0000000E+00
   0.4330127E+01   0.2500000E+01  -0.3076923E+01   0.0000000E+00   0.0000000E+00   0.0000000E+00   0.0000000E+00
   0.4330127E+01   0.2500000E+01  -0.2307693E+01   0.0000000E+00   0.0000000E+00   0.0000000E+00   0.0000000E+00
   0.4330127E+01   0.2500000E+01  -0.1538462E+01   0.0000000E+00   0.0000000E+00   0.0000000E+00   0.0000000E+00
   0.4330127E+01   0.2500000E+01  -0.7692308E+00   0.0000000E+00   0.0000000E+00   0.0000000E+00   0.0000000E+00
   0.4330127E+01   0.2500000E+01   0.0000000E+00   0.0000000E+00   0.0000000E+00   0.0000000E+00   0.0000000E+00
   0.4619398E+01   0.1913417E+01  -0.1000000E+02   0.0000000E+00   0.0000000E+00   0.0000000E+00   0.0000000E+00
   0.4619398E+01   0.1913417E+01  -0.9230769E+01   0.0000000E+00   0.0000000E+00   0.0000000E+00   0.0000000E+00
   0.4619398E+01   0.1913417E+01  -0.8461538E+01   0.0000000E+00   0.0000000E+00   0.0000000E+00   0.0000000E+00
   0.4619398E+01   0.1913417E+01  -0.7692307E+01   0.0000000E+00   0.0000000E+00   0.0000000E+00   0.0000000E+00
   0.4619398E+01   0.1913417E+01  -0.6923077E+01   0.0000000E+00   0.0000000E+00   0.0000000E+00   0.0000000E+00
   0.4619398E+01   0.1913417E+01  -0.6153846E+01   0.0000000E+00   0.0000000E+00   0.0000000E+00   0.0000000E+00
   0.4619398E+01   0.1913417E+01  -0.5384615E+01   0.0000000E+00   0.0000000E+00   0.0000000E+00   0.0000000E+00
   0.4619398E+01   0.1913417E+01  -0.4615385E+01   0.0000000E+00   0.0000000E+00   0.0000000E+00   0.0000000E+00
   0.4619398E+01   0.1913417E+01  -0.3846154E+01   0.0000000E+00   0.0000000E+00   0.0000000E+00   0.0000000E+00
   0.4619398E+01   0.1913417E+01  -0.3076923E+01   0.0000000E+00   0.0000000E+00   0.0000000E+00   0.0000000E+00
   0.4619398E+01   0.1913417E+01  -0.2307693E+01   0.0000000E+00   0.0000000E+00   0.0000000E+00   0.0000000E+00
   0.4619398E+01   0.1913417E+01  -0.1538462E+01   0.0000000E+00   0.0000000E+00   0.0000000E+00   0.0000000E+00
   0.4619398E+01   0.1913417E+01  -0.7692308E+00   0.0000000E+00   0.0000000E+00   0.0000000E+00   0.0000000E+00
   0.4619398E+01   0.1913417E+01   0.0000000E+00   0.0000000E+00   0.0000000E+00   0.0000000E+00   0.0000000E+00
   0.3966767E+01   0.3043807E+01  -0.1000000E+02   0.0000000E+00   0.0000000E+00   0.0000000E+00   0.0000000E+00
   0.3966767E+01   0.3043807E+01  -0.9230769E+01   0.0000000E+00   0.0000000E+00   0.0000000E+00   0.0000000E+00
   0.3966767E+01   0.3043807E+01  -0.8461538E+01   0.0000000E+00   0.0000000E+00   0.0000000E+00   0.0000000E+00
   0.3966767E+01   0.3043807E+01  -0.7692307E+01   0.0000000E+00   0.0000000E+00   0.0000000E+00   0.0000000E+00
   0.3966767E+01   0.3043807E+01  -0.6923077E+01   0.0000000E+00   0.0000000E+00   0.0000000E+00   0.0000000E+00
   0.3966767E+01   0.3043807E+01  -0.6153846E+01   0.0000000E+00   0.0000000E+00   0.0000000E+00   0.0000000E+00
   0.3966767E+01   0.3043807E+01  -0.5384615E+01   0.0000000E+00   0.0000000E+00   0.0000000E+00   0.0000000E+00
   0.3966767E+01   0.3043807E+01  -0.4615385E+01   0.0000000E+00   0.0000000E+00   0.0000000E+00   0.0000000E+00
   0.3966767E+01   0.3043807E+01  -0.3846154E+01   0.0000000E+00   0.0000000E+00   0.0000000E+00   0.0000000E+00
   0.3966767E+01   0.3043807E+01  -0.3076923E+01   0.0000000E+00   0.0000000E+00   0.0000000E+00   0.0000000E+00
   0.3966767E+01   0.3043807E+01  -0.2307693E+01   0.0000000E+00   0.0000000E+00   0.0000000E+00   0.0000000E+00
   0.3966767E+01   0.3043807E+01  -0.1538462E+01   0.0000000E+00   0.0000000E+00   0.0000000E+00   0.0000000E+00
   0.3966767E+01   0.3043807E+01  -0.7692308E+00   0.0000000E+00   0.0000000E+00   0.0000000E+00   0.0000000E+00
   0.3966767E+01   0.3043807E+01   0.0000000E+00   0.0000000E+00   0.0000000E+00   0.0000000E+00   0.0000000E+00
   0.4330127E+01   0.2500000E+01  -0.1000000E+02   0.0000000E+00   0.0000000E+00   0.0000000E+00   0.0000000E+00
   0.4330127E+01   0.2500000E+01  -0.9230769E+01   0.0000000E+00   0.0000000E+00   0.0000000E+00   0.0000000E+00
   0.4330127E+01   0.2500000E+01  -0.8461538E+01   0.0000000E+00   0.0000000E+00   0.0000000E+00   0.0000000E+00
   0.4330127E+01   0.2500000E+01  -0.7692307E+01   0.0000000E+00   0.0000000E+00   0.0000000E+00   0.0000000E+00
   0.4330127E+01   0.2500000E+01  -0.6923077E+01   0.0000000E+00   0.0000000E+00   0.0000000E+00   0.0000000E+00
   0.4330127E+01   0.2500000E+01  -0.6153846E+01   0.0000000E+00   0.0000000E+00   0.0000000E+00   0.0000000E+00
   0.4330127E+01   0.2500000E+01  -0.5384615E+01   0.0000000E+00   0.0000000E+00   0.0000000E+00   0.0000000E+00
   0.4330127E+01   0.2500000E+01  -0.4615385E+01   0.0000000E+00   0.0000000E+00   0.0000000E+00   0.0000000E+00
   0.4330127E+01   0.2500000E+01  -0.3846154E+01   0.0000000E+00   0.0000000E+00   0.0000000E+00   0.0000000E+00
   0.4330127E+01   0.2500000E+01  -0.3076923E+01   0.0000000E+00   0.0000000E+00   0.0000000E+00   0.0000000E+00
   0.4330127E+01   0.2500000E+01  -0.2307693E+01   0.0000000E+00   0.0000000E+00   0.0000000E+00   0.0000000E+00
   0.4330127E+01   0.2500000E+01  -0.1538462E+01   0.0000000E+00   0.0000000E+00   0.0000000E+00   0.0000000E+00
   0.4330127E+01   0.2500000E+01  -0.7692308E+00   0.0000000E+00   0.0000000E+00   0.0000000E+00   0.0000000E+00
   0.4330127E+01   0.2500000E+01   0.0000000E+00   0.0000000E+00   0.0000000E+00   0.0000000E+00   0.0000000E+00
   0.3535534E+01   0.3535534E+01  -0.1000000E+02   0.0000000E+00   0.0000000E+00   0.0000000E+00   0.0000000E+00
   0.3535534E+01   0.3535534E+01  -0.9230769E+01   0.0000000E+00   0.0000000E+00   0.0000000E+00   0.0000000E+00
   0.3535534E+01   0.3535534E+01  -0.8461538E+01   0.0000000E+00   0.0000000E+00   0.0000000E+00   0.0000000E+00
   0.3535534E+01   0.3535534E+01  -0.7692307E+01   0.0000000E+00   0.0000000E+00   0.0000000E+00   0.0000000E+00
   0.3535534E+01   0.3535534E+01  -0.6923077E+01   0.0000000E+00   0.0000000E+00   0.0000000E+00   0.0000000E+00
   0.3535534E+01   0.3535534E+01  -0.6153846E+01   0.0000000E+00   0.0000000E+00   0.0000000E+00   0.0000000E+00
   0.3535534E+01   0.3535534E+01  -0.5384615E+01   0.0000000E+00   0.0000000E+00   0.0000000E+00   0.0000000E+00
   0.3535534E+01   0.3535534E+01  -0.4615385E+01   0.0000000E+00   0.0000000E+00   0.0000000E+00   0.0000000E+00
   0.3535534E+01   0.3535534E+01  -0.3846154E+01   0.0000000E+00   0.0000000E+00   0.0000000E+00   0.0000000E+00
   0.3535534E+01   0.3535534E+01  -0.3076923E+01   0.0000000E+00   0.0000000E+00   0.0000000E+00   0.0000000E+00
   0.3535534E+01   0.3535534E+01  -0.2307693E+01   0.0000000E+00   0.0000000E+00   0.0000000E+00   0.0000000E+00
   0.3535534E+01   0.3535534E+01  -0.1538462E+01   0.0000000E+00   0.0000000E+00   0.0000000E+00   0.0000000E+00
   0.3535534E+01   0.3535534E+01  -0.7692308E+00   0.0000000E+00   0.0000000E+00   0.0000000E+00   0.0000000E+00
   0.3535534E+01   0.3535534E+01   0.0000000E+00   0.0000000E+00   0.0000000E+00   0.0000000E+00   0.0000000E+00
   0.3966767E+01   0.3043807E+01  -0.1000000E+02   0.0000000E+00   0.0000000E+00   0.0000000E+00   0.0000000E+00
   0.3966767E+01   0.3043807E+01  -0.9230769E+01   0.0000000E+00   0.0000000E+00   0.0000000E+00   0.0000000E+00
   0.3966767E+01   0.3043807E+01  -0.8461538E+01   0.0000000E+00   0.0000000E+00   0.0000000E+00   0.0000000E+00
   0.3966767E+01   0.3043807E+01  -0.7692307E+01   0.0000000E+00   0.0000000E+00   0.0000000E+00   0.0000000E+00
   0.3966767E+01   0.3043807E+01  -0.6923077E+01   0.0000000E+00   0.0000000E+00   0.0000000E+00   0.0000000E+00
   0.3966767E+01   0.3043807E+01  -0.6153846E+01   0.0000000E+00   0.0000000E+00   0.0000000E+00   0.0000000E+00
   0.3966767E+01   0.3043807E+01  -0.5384615E+01   0.0000000E+00   0.0000000E+00   0.0000000E+00   0.0000000E+00
   0.3966767E+01   0.3043807E+01  -0.4615385E+01   0.0000000E+00   0.0000000E+00   0.0000000E+00   0.0000000E+00
   0.3966767E+01   0.3043807E+01  -0.3846154E+01   0.0000000E+00   0.0000000E+00   0.0000000E+00   0.0000000E+00
   0.3966767E+01   0.3043807E+01  -0.3076923E+01   0.0000000E+00   0.0000000E+00   0.0000000E+00   0.0000000E+00
   0.3966767E+01   0.3043807E+01  -0.2307693E+01   0.0000000E+00   0.0000000E+00   0.0000000E+00   0.0000000E+00
   0.3966767E+01   0.3043807E+01  -0.1538462E+01   0.0000000E+00   0.0000000E+00   0.0000000E+00   0.0000000E+00
   0.3966767E+01   0.3043807E+01  -0.7692308E+00   0.0000000E+00   0.0000000E+00   0.0000000E+00   0.0000000E+00
   0.3966767E+01   0.3043807E+01   0.0000000E+00   0.0000000E+00   0.0000000E+00   0.0000000E+00   0.0000000E+00
   0.3043807E+01   0.3966767E+01  -0.1000000E+02   0.0000000E+00   0.0000000E+00   0.0000000E+00   0.0000000E+00
   0.3043807E+01   0.3966767E+01  -0.9230769E+01   0.0000000E+00   0.0000000E+00   0.0000000E+00   0.0000000E+00
   0.3043807E+01   0.3966767E+01  -0.8461538E+01   0.0000000E+00   0.0000000E+00   0.0000000E+00   0.0000000E+00
   0.3043807E+01   0.3966767E+01  -0.7692307E+01   0.0000000E+00   0.0000000E+00   0.0000000E+00   0.0000000E+00
   0.3043807E+01   0.3966767E+01  -0.6923077E+01   0.0000000E+00   0.0000000E+00   0.0000000E+00   0.0000000E+00
   0.3043807E+01   0.3966767E+01  -0.6153846E+01   0.0000000E+00   0.0000000E+00   0.0000000E+00   0.0000000E+00
   0.3043807E+01   0.3966767E+01  -0.5384615E+01   0.0000000E+00   0.0000000E+00   0.0000000E+00   0.0000000E+00
   0.3043807E+01   0.3966767E+01  -0.4615385E+01   0.0000000E+00   0.0000000E+00   0.0000000E+00   0.0000000E+00
   0.3043807E+01   0.3966767E+01  -0.3846154E+01   0.0000000E+00   0.0000000E+00   0.0000000E+00   0.0000000E+00
   0.3043807E+01   0.3966767E+01  -0.3076923E+01   0.0000000E+00   0.0000000E+00   0.0000000E+00   0.0000000E+00
   0.3043807E+01   0.3966767E+01  -0.2307693E+01   0.0000000E+00   0.0000000E+00   0.0000000E+00   0.0000000E+00
   0.3043807E+01   0.3966767E+01  -0.1538462E+01   0.0000000E+00   0.0000000E+00   0.0000000E+00   0.0000000E+00
   0.3043807E+01   0.3966767E+01  -0.7692308E+00   0.0000000E+00   0.0000000E+00   0.0000000E+00   0.0000000E+00
   0.3043807E+01   0.3966767E+01   0.0000000E+00   0.0000000E+00   0.0000000E+00   0.0000000E+00   0.0000000E+00
   0.3535534E+01   0.3535534E+01  -0.1000000E+02   0.0000000E+00   0.0000000E+00   0.0000000E+00   0.0000000E+00
   0.3535534E+01   0.3535534E+01  -0.9230769E+01   0.0000000E+00   0.0000000E+00   0.0000000E+00   0.0000000E+00
   0.3535534E+01   0.3535534E+01  -0.8461538E+01   0.0000000E+00   0.0000000E+00   0.0000000E+00   0.0000000E+00
   0.3535534E+01   0.3535534E+01  -0.7692307E+01   0.0000000E+00   0.0000000E+00   0.0000000E+00   0.0000000E+00
   0.3535534E+01   0.3535534E+01  -0.6923077E+01   0.0000000E+00   0.0000000E+00   0.0000000E+00   0.0000000E+00
   0.3535534E+01   0.3535534E+01  -0.6153846E+01   0.0000000E+00   0.0000000E+00   0.0000000E+00   0.0000000E+00
   0.3535534E+01   0.3535534E+01  -0.5384615E+01   0.0000000E+00   0.0000000E+00   0.0000000E+00   0.0000000E+00
   0.3535534E+01   0.3535534E+01  -0.4615385E+01   0.0000000E+00   0.0000000E+00   0.0000000E+00   0.0000000E+00
   0.3535534E+01   0.3535534E+01  -0.3846154E+01   0.0000000E+00   0.0000000E+00   0.0000000E+00   0.0000000E+00
   0.3535534E+01   0.3535534E+01  -0.3076923E+01   0.0000000E+00   0.0000000E+00   0.0000000E+00   0.0000000E+00
   0.3535534E+01   0.3535534E+01  -0.2307693E+01   0.0000000E+00   0.0000000E+00   0.0000000E+00   0.0000000E+00
   0.3535534E+01   0.3535534E+01  -0.1538462E+01   0.0000000E+00   0.0000000E+00   0.0000000E+00   0.0000000E+00
   0.3535534E+01   0.3535534E+01  -0.7692308E+00   0.0000000E+00   0.0000000E+00   0.0000000E+00   0.0000000E+00
   0.3535534E+01   0.3535534E+01   0.0000000E+00   0.0000000E+00   0.0000000E+00   0.0000000E+00   0.0000000E+00
   0.2500000E+01   0.4330127E+01  -0.1000000E+02   0.0000000E+00   0.0000000E+00   0.0000000E+00   0.0000000E+00
   0.2500000E+01   0.4330127E+01  -0.9230769E+01   0.0000000E+00   0.0000000E+00   0.0000000E+00   0.0000000E+00
   0.2500000E+01   0.4330127E+01  -0.8461538E+01   0.0000000E+00   0.0000000E+00   0.0000000E+00   0.0000000E+00
   0.2500000E+01   0.4330127E+01  -0.7692307E+01   0.0000000E+00   0.0000000E+00   0.0000000E+00   0.0000000E+00
   0.2500000E+01   0.4330127E+01  -0.6923077E+01   0.0000000E+00   0.0000000E+00   0.0000000E+00   0.0000000E+00
   0.2500000E+01   0.4330127E+01  -0.6153846E+01   0.0000000E+00   0.0000000E+00   0.0000000E+00   0.0000000E+00
   0.2500000E+01   0.4330127E+01  -0.5384615E+01   0.0000000E+00   0.0000000E+00   0.0000000E+00   0.0000000E+00
   0.2500000E+01   0.4330127E+01  -0.4615385E+01   0.0000000E+00   0.0000000E+00   0.0000000E+00   0.0000000E+00
   0.2500000E+01   0.4330127E+01  -0.3846154E+01   0.0000000E+00   0.0000000E+00   0.0000000E+00   0.0000000E+00
   0.2500000E+01   0.4330127E+01  -0.3076923E+01   0.0000000E+00   0.0000000E+00   0.0000000E+00   0.0000000E+00
   0.2500000E+01   0.4330127E+01  -0.2307693E+01   0.0000000E+00   0.0000000E+00   0.0000000E+00   0.0000000E+00
   0.2500000E+01   0.4330127E+01  -0.1538462E+01   0.0000000E+00   0.0000000E+00   0.0000000E+00   0.0000000E+00
   0.2500000E+01   0.4330127E+01  -0.7692308E+00   0.0000000E+00   0.0000000E+00   0.0000000E+00   0.0000000E+00
   0.2500000E+01   0.4330127E+01   0.0000000E+00   0.0000000E+00   0.0000000E+00   0.0000000E+00   0.0000000E+00
   0.3043807E+01   0.3966767E+01  -0.1000000E+02   0.0000000E+00   0.0000000E+00   0.0000000E+00   0.0000000E+00
   0.3043807E+01   0.3966767E+01  -0.9230769E+01   0.0000000E+00   0.0000000E+00   0.0000000E+00   0.0000000E+00
   0.3043807E+01   0.3966767E+01  -0.8461538E+01   0.0000000E+00   0.0000000E+00   0.0000000E+00   0.0000000E+00
   0.3043807E+01   0.3966767E+01  -0.7692307E+01   0.0000000E+00   0.0000000E+00   0.0000000E+00   0.0000000E+00
   0.3043807E+01   0.3966767E+01  -0.6923077E+01   0.0000000E+00   0.0000000E+00   0.0000000E+00   0.0000000E+00
   0.3043807E+01   0.3966767E+01  -0.6153846E+01   0.0000000E+00   0.0000000E+00   0.0000000E+00   0.0000000E+00
   0.3043807E+01   0.3966767E+01  -0.5384615E+01   0.0000000E+00   0.0000000E+00   0.0000000E+00   0.0000000E+00
   0.3043807E+01   0.3966767E+01  -0.4615385E+01   0.0000000E+00   0.0000000E+00   0.0000000E+00   0.0000000E+00
   0.3043807E+01   0.3966767E+01  -0.3846154E+01   0.0000000E+00   0.0000000E+00   0.0000000E+00   0.0000000E+00
   0.3043807E+01   0.3966767E+01  -0.3076923E+01   0.0000000E+00   0.0000000E+00   0.0000000E+00   0.0000000E+00
   0.3043807E+01   0.3966767E+01  -0.2307693E+01   0.0000000E+00   0.0000000E+00   0.0000000E+00   0.0000000E+00
   0.3043807E+01   0.3966767E+01  -0.1538462E+01   0.0000000E+00   0.0000000E+00   0.0000000E+00   0.0000000E+00
   0.3043807E+01   0.3966767E+01  -0.7692308E+00   0.0000000E+00   0.0000000E+00   0.0000000E+00   0.0000000E+00
   0.3043807E+01   0.3966767E+01   0.0000000E+00   0.0000000E+00   0.0000000E+00   0.0000000E+00   0.0000000E+00
   0.1913417E+01   0.4619398E+01  -0.1000000E+02   0.0000000E+00   0.0000000E+00   0.0000000E+00   0.0000000E+00
   0.1913417E+01   0.4619398E+01  -0.9230769E+01   0.0000000E+00   0.0000000E+00   0.0000000E+00   0.0000000E+00
   0.1913417E+01   0.4619398E+01  -0.8461538E+01   0.0000000E+00   0.0000000E+00   0.0000000E+00   0.0000000E+00
   0.1913417E+01   0.4619398E+01  -0.7692307E+01   0.0000000E+00   0.0000000E+00   0.0000000E+00   0.0000000E+00
   0.1913417E+01   0.4619398E+01  -0.6923077E+01   0.0000000E+00   0.0000000E+00   0.0000000E+00   0.0000000E+00
   0.1913417E+01   0.4619398E+01  -0.6153846E+01   0.0000000E+00   0.0000000E+00   0.0000000E+00   0.0000000E+00
   0.1913417E+01   0.4619398E+01  -0.5384615E+01   0.0000000E+00   0.0000000E+00   0.0000000E+00   0.0000000E+00
   0.1913417E+01   0.4619398E+01  -0.4615385E+01   0.0000000E+00   0.0000000E+00   0.0000000E+00   0.0000000E+00
   0.1913417E+01   0.4619398E+01  -0.3846154E+01   0.0000000E+00   0.0000000E+00   0.0000000E+00   0.0000000E+00
   0.1913417E+01   0.4619398E+01  -0.3076923E+01   0.0000000E+00   0.0000000E+00   0.0000000E+00   0.0000000E+00
   0.1913417E+01   0.4619398E+01  -0.2307693E+01   0.0000000E+00   0.0000000E+00   0.0000000E+00   0.0000000E+00
   0.1913417E+01   0.4619398E+01  -0.1538462E+01   0.0000000E+00   0.0000000E+00   0.0000000E+00   0.0000000E+00
   0.1913417E+01   0.4619398E+01  -0.7692308E+00   0.0000000E+00   0.0000000E+00   0.0000000E+00   0.0000000E+00
   0.1913417E+01   0.4619398E+01   0.0000000E+00   0.0000000E+00   0.0000000E+00   0.0000000E+00   0.0000000E+00
   0.2500000E+01   0.4330127E+01  -0.1000000E+02   0.0000000E+00   0.0000000E+00   0.0000000E+00   0.0000000E+00
   0.2500000E+01   0.4330127E+01  -0.9230769E+01   0.0000000E+00   0.0000000E+00   0.0000000E+00   0.0000000E+00
   0.2500000E+01   0.4330127E+01  -0.8461538E+01   0.0000000E+00   0.0000000E+00   0.0000000E+00   0.0000000E+00
   0.2500000E+01   0.4330127E+01  -0.7692307E+01   0.0000000E+00   0.0000000E+00   0.0000000E+00   0.0000000E+00
   0.2500000E+01   0.4330127E+01  -0.6923077E+01   0.0000000E+00   0.0000000E+00   0.0000000E+00   0.0000000E+00
   0.2500000E+01   0.4330127E+01  -0.6153846E+01   0.0000000E+00   0.0000000E+00   0.0000000E+00   0.0000000E+00
   0.2500000E+01   0.4330127E+01  -0.5384615E+01   0.0000000E+00   0.0000000E+00   0.0000000E+00   0.0000000E+00
   0.2500000E+01   0.4330127E+01  -0.4615385E+01   0.0000000E+00   0.0000000E+00   0.0000000E+00   0.0000000E+00
   0.2500000E+01   0.4330127E+01  -0.3846154E+01   0.0000000E+00   0.0000000E+00   0.0000000E+00   0.0000000E+00
   0.2500000E+01   0.4330127E+01  -0.3076923E+01   0.0000000E+00   0.0000000E+00   0.0000000E+00   0.0000000E+00
   0.2500000E+01   0.4330127E+01  -0.2307693E+01   0.0000000E+00   0.0000000E+00   0.0000000E+00   0.0000000E+00
   0.2500000E+01   0.4330127E+01  -0.1538462E+01   0.0000000E+00   0.0000000E+00   0.0000000E+00   0.0000000E+00
   0.2500000E+01   0.4330127E+01  -0.7692308E+00   0.0000000E+00   0.0000000E+00   0.0000000E+00   0.0000000E+00
   0.2500000E+01   0.4330127E+01   0.0000000E+00   0.0000000E+00   0.0000000E+00   0.0000000E+00   0.0000000E+00
   0.1294095E+01   0.4829629E+01  -0.1000000E+02   0.0000000E+00   0.0000000E+00   0.0000000E+00   0.0000000E+00
   0.1294095E+01   0.4829629E+01  -0.9230769E+01   0.0000000E+00   0.0000000E+00   0.0000000E+00   0.0000000E+00
   0.1294095E+01   0.4829629E+01  -0.8461538E+01   0.0000000E+00   0.0000000E+00   0.0000000E+00   0.0000000E+00
   0.1294095E+01   0.4829629E+01  -0.7692307E+01   0.0000000E+00   0.0000000E+00   0.0000000E+00   0.0000000E+00
   0.1294095E+01   0.4829629E+01  -0.6923077E+01   0.0000000E+00   0.0000000E+00   0.0000000E+00   0.0000000E+00
   0.1294095E+01   0.4829629E+01  -0.6153846E+01   0.0000000E+00   0.0000000E+00   0.0000000E+00   0.0000000E+00
   0.1294095E+01   0.4829629E+01  -0.5384615E+01   0.0000000E+00   0.0000000E+00   0.0000000E+00   0.0000000E+00
   0.1294095E+01   0.4829629E+01  -0.4615385E+01   0.0000000E+00   0.0000000E+00   0.0000000E+00   0.0000000E+00
   0.1294095E+01   0.4829629E+01  -0.3846154E+01   0.0000000E+00   0.0000000E+00   0.0000000E+00   0.0000000E+00
   0.1294095E+01   0.4829629E+01  -0.3076923E+01   0.0000000E+00   0.0000000E+00   0.0000000E+00   0.0000000E+00
   0.1294095E+01   0.4829629E+01  -0.2307693E+01   0.0000000E+00   0.0000000E+00   0.0000000E+00   0.0000000E+00
   0.1294095E+01   0.4829629E+01  -0.1538462E+01   0.0000000E+00   0.0000000E+00   0.0000000E+00   0.0000000E+00