VARIABLES="w (rad/s)"
"abs(F   1   1)" "angle(F   1   1)"
"abs(F   1   2)" "angle(F   1   2)"
"abs(F   1   3)" "angle(F   1   3)"
"abs(F   1   4)" "angle(F   1   4)"
"abs(F   1   5)" "angle(F   1   5)"
"abs(F   1   6)" "angle(F   1   6)"
Zone t="Diffraction force - beta =  30.000 deg",I=   500,F=POINT
  0.5257440E+00  0.1375986E+06 -0.1557250E+01  0.7944256E+05 -0.1557250E+01  0.6164123E+05 -0.2947189E+01  0.1809655E+06 -0.1557409E+01  0.3134420E+06  0.1584184E+01  0.1605137E-05 -0.1740642E-02
  0.5320246E+00  0.1408129E+06 -0.1556352E+01  0.8129833E+05 -0.1556352E+01  0.6258395E+05 -0.2943967E+01  0.1848287E+06 -0.1556519E+01  0.3201331E+06  0.1585074E+01  0.1754780E-05  0.1977115E-01
  0.5383052E+00  0.1440280E+06 -0.1555407E+01  0.8315457E+05 -0.1555407E+01  0.6353148E+05 -0.2940806E+01  0.1886877E+06 -0.1555582E+01  0.3268169E+06  0.1586011E+01  0.1929346E-05 -0.1074060E-01
  0.5445858E+00  0.1472808E+06 -0.1554414E+01  0.8503262E+05 -0.1554414E+01  0.6447460E+05 -0.2937671E+01  0.1925782E+06 -0.1554598E+01  0.3335554E+06  0.1586994E+01  0.2101285E-05 -0.6648286E-02
  0.5508664E+00  0.1505913E+06 -0.1553374E+01  0.8694382E+05 -0.1553374E+01  0.6541392E+05 -0.2934565E+01  0.1965033E+06 -0.1553568E+01  0.3403540E+06  0.1588025E+01  0.2289194E-05  0.1525630E-02
  0.5571470E+00  0.1539373E+06 -0.1552284E+01  0.8887562E+05 -0.1552284E+01  0.6635134E+05 -0.2931495E+01  0.2004827E+06 -0.1552487E+01  0.3472467E+06  0.1589105E+01  0.2497767E-05 -0.3821846E-02
  0.5634276E+00  0.1573021E+06 -0.1551141E+01  0.9081821E+05 -0.1551141E+01  0.6728480E+05 -0.2928461E+01  0.2044480E+06 -0.1551354E+01  0.3541149E+06  0.1590239E+01  0.2744954E-05  0.1119665E-01
  0.5697082E+00  0.1606933E+06 -0.1549944E+01  0.9277620E+05 -0.1549944E+01  0.6821804E+05 -0.2925480E+01  0.2084479E+06 -0.1550168E+01  0.3610430E+06  0.1591425E+01  0.2981976E-05 -0.8744994E-02
  0.5759888E+00  0.1641242E+06 -0.1548692E+01  0.9475704E+05 -0.1548692E+01  0.6914983E+05 -0.2922545E+01  0.2125159E+06 -0.1548930E+01  0.3680888E+06  0.1592663E+01  0.3245901E-05 -0.6455805E-02
  0.5822694E+00  0.1675834E+06 -0.1547383E+01  0.9675424E+05 -0.1547383E+01  0.7008321E+05 -0.2919671E+01  0.2166139E+06 -0.1547635E+01  0.3751873E+06  0.1593957E+01  0.3515047E-05  0.1059813E-02
  0.5885500E+00  0.1710070E+06 -0.1546010E+01  0.9873080E+05 -0.1546010E+01  0.7101823E+05 -0.2916867E+01  0.2206446E+06 -0.1546279E+01  0.3821680E+06  0.1595314E+01  0.3822986E-05 -0.6516648E-02
  0.5948306E+00  0.1744932E+06 -0.1544579E+01  0.1007435E+06 -0.1544579E+01  0.7195710E+05 -0.2914129E+01  0.2247703E+06 -0.1544866E+01  0.3893143E+06  0.1596726E+01  0.4154229E-05 -0.5604694E-02
  0.6011113E+00  0.1780268E+06 -0.1543087E+01  0.1027837E+06 -0.1543088E+01  0.7290167E+05 -0.2911474E+01  0.2289577E+06 -0.1543395E+01  0.3965669E+06  0.1598197E+01  0.4503204E-05  0.3412427E-02
  0.6073918E+00  0.1815695E+06 -0.1541531E+01  0.1048290E+06 -0.1541530E+01  0.7382987E+05 -0.2908840E+01  0.2331154E+06 -0.1541860E+01  0.4037689E+06  0.1599733E+01  0.4880727E-05  0.2432911E-02
  0.6136725E+00  0.1851563E+06 -0.1539910E+01  0.1068998E+06 -0.1539910E+01  0.7461891E+05 -0.2905794E+01  0.2373363E+06 -0.1540263E+01  0.4110800E+06  0.1601330E+01  0.5301878E-05  0.3557102E-02
  0.6199530E+00  0.1887475E+06 -0.1538219E+01  0.1089732E+06 -0.1538219E+01  0.7541183E+05 -0.2902820E+01  0.2415916E+06 -0.1538601E+01  0.4184501E+06  0.1602992E+01  0.5678946E-05  0.1324304E-01
  0.6262337E+00  0.1923397E+06 -0.1536457E+01  0.1110471E+06 -0.1536458E+01  0.7619050E+05 -0.2899864E+01  0.2458285E+06 -0.1536869E+01  0.4257886E+06  0.1604723E+01  0.6160541E-05  0.2381015E-02
  0.6325143E+00  0.1960253E+06 -0.1534633E+01  0.1131750E+06 -0.1534633E+01  0.7696535E+05 -0.2896952E+01  0.2500981E+06 -0.1535072E+01  0.4331833E+06  0.1606520E+01  0.6641118E-05 -0.3085193E-02
  0.6387949E+00  0.1997481E+06 -0.1532738E+01  0.1153243E+06 -0.1532738E+01  0.7772707E+05 -0.2894058E+01  0.2543098E+06 -0.1533201E+01  0.4404788E+06  0.1608392E+01  0.7134359E-05 -0.2415001E-02
  0.6450755E+00  0.2035233E+06 -0.1530773E+01  0.1175039E+06 -0.1530773E+01  0.7848414E+05 -0.2891202E+01  0.2585824E+06 -0.1531261E+01  0.4478791E+06  0.1610332E+01  0.7712776E-05  0.4739479E-02
  0.6513561E+00  0.2073160E+06 -0.1528733E+01  0.1196937E+06 -0.1528733E+01  0.7923027E+05 -0.2888384E+01  0.2627813E+06 -0.1529241E+01  0.4551523E+06  0.1612352E+01  0.8290483E-05  0.2387150E-02
  0.6576367E+00  0.2111359E+06 -0.1526617E+01  0.1218992E+06 -0.1526617E+01  0.7997209E+05 -0.2885620E+01  0.2669922E+06 -0.1527146E+01  0.4624452E+06  0.1614447E+01  0.8921495E-05 -0.1252691E-02
  0.6639173E+00  0.2149901E+06 -0.1524423E+01  0.1241245E+06 -0.1524423E+01  0.8070649E+05 -0.2882898E+01  0.2712365E+06 -0.1524975E+01  0.4697967E+06  0.1616618E+01  0.9603524E-05  0.3951830E-02
  0.6701979E+00  0.2189028E+06 -0.1522153E+01  0.1263835E+06 -0.1522153E+01  0.8143622E+05 -0.2880228E+01  0.2755367E+06 -0.1522730E+01  0.4772445E+06  0.1618863E+01  0.1029031E-04  0.1108685E-02
  0.6764785E+00  0.2227451E+06 -0.1519790E+01  0.1286019E+06 -0.1519790E+01  0.8216261E+05 -0.2877625E+01  0.2796889E+06 -0.1520390E+01  0.4844357E+06  0.1621203E+01  0.1107072E-04 -0.2313435E-02
  0.6827591E+00  0.2266208E+06 -0.1517344E+01  0.1308395E+06 -0.1517344E+01  0.8288559E+05 -0.2875088E+01  0.2838485E+06 -0.1517968E+01  0.4916407E+06  0.1623625E+01  0.1186198E-04  0.1609522E-02
  0.6890397E+00  0.2305691E+06 -0.1514819E+01  0.1331190E+06 -0.1514820E+01  0.8360807E+05 -0.2872607E+01  0.2881058E+06 -0.1515470E+01  0.4990141E+06  0.1626123E+01  0.1271017E-04  0.1099107E-03
  0.6953203E+00  0.2345372E+06 -0.1512208E+01  0.1354100E+06 -0.1512208E+01  0.8433030E+05 -0.2870213E+01  0.2923189E+06 -0.1512883E+01  0.5063124E+06  0.1628710E+01  0.1362915E-04  0.6149982E-03
  0.7016009E+00  0.2385140E+06 -0.1509508E+01  0.1377059E+06 -0.1509508E+01  0.8501997E+05 -0.2867807E+01  0.2964942E+06 -0.1510205E+01  0.5135435E+06  0.1631388E+01  0.1456642E-04  0.9910128E-03
  0.7078815E+00  0.2425293E+06 -0.1506719E+01  0.1400242E+06 -0.1506719E+01  0.8556058E+05 -0.2865013E+01  0.3006991E+06 -0.1507441E+01  0.5208270E+06  0.1634152E+01  0.1560478E-04 -0.8653872E-03
  0.7141621E+00  0.2465498E+06 -0.1503836E+01  0.1423454E+06 -0.1503836E+01  0.8610650E+05 -0.2862296E+01  0.3049237E+06 -0.1504588E+01  0.5281445E+06  0.1637004E+01  0.1670041E-04 -0.2537376E-02
  0.7204427E+00  0.2505479E+06 -0.1500855E+01  0.1446537E+06 -0.1500855E+01  0.8663142E+05 -0.2859596E+01  0.3090681E+06 -0.1501636E+01  0.5353216E+06  0.1639957E+01  0.1782092E-04 -0.1306502E-03
  0.7267233E+00  0.2545948E+06 -0.1497782E+01  0.1469901E+06 -0.1497783E+01  0.8714960E+05 -0.2856934E+01  0.3132784E+06 -0.1498596E+01  0.5426149E+06  0.1642996E+01  0.1903016E-04  0.1957573E-02
  0.7330039E+00  0.2586808E+06 -0.1494618E+01  0.1493493E+06 -0.1494618E+01  0.8765230E+05 -0.2854290E+01  0.3174919E+06 -0.1495465E+01  0.5499137E+06  0.1646128E+01  0.2029694E-04 -0.4611447E-02
  0.7392845E+00  0.2627585E+06 -0.1491352E+01  0.1517034E+06 -0.1491352E+01  0.8814195E+05 -0.2851674E+01  0.3216819E+06 -0.1492235E+01  0.5571708E+06  0.1649358E+01  0.2167365E-04 -0.1654356E-02
  0.7455651E+00  0.2668686E+06 -0.1487988E+01  0.1540764E+06 -0.1487988E+01  0.8862146E+05 -0.2849080E+01  0.3259171E+06 -0.1488913E+01  0.5645062E+06  0.1652679E+01  0.2304668E-04 -0.3434873E-03
  0.7518457E+00  0.2709707E+06 -0.1484523E+01  0.1564447E+06 -0.1484523E+01  0.8908717E+05 -0.2846526E+01  0.3300772E+06 -0.1485487E+01  0.5717106E+06  0.1656106E+01  0.2455554E-04  0.3034175E-03
  0.7581264E+00  0.2750718E+06 -0.1480953E+01  0.1588124E+06 -0.1480953E+01  0.8954483E+05 -0.2844018E+01  0.3342485E+06 -0.1481964E+01  0.5789367E+06  0.1659629E+01  0.2611516E-04  0.3566214E-03
  0.7644069E+00  0.2791816E+06 -0.1477279E+01  0.1611853E+06 -0.1477278E+01  0.8999201E+05 -0.2841545E+01  0.3384560E+06 -0.1478346E+01  0.5862242E+06  0.1663246E+01  0.2781436E-04  0.2092721E-02
  0.7706876E+00  0.2833315E+06 -0.1473505E+01  0.1635812E+06 -0.1473505E+01  0.9042898E+05 -0.2839108E+01  0.3427100E+06 -0.1474636E+01  0.5935917E+06  0.1666956E+01  0.2952764E-04  0.5519624E-03
  0.7769681E+00  0.2874359E+06 -0.1469617E+01  0.1659510E+06 -0.1469616E+01  0.9085973E+05 -0.2836721E+01  0.3468908E+06 -0.1470816E+01  0.6008341E+06  0.1670777E+01  0.3137742E-04  0.1855082E-02
  0.7832488E+00  0.2914778E+06 -0.1465609E+01  0.1682847E+06 -0.1465609E+01  0.9128333E+05 -0.2834394E+01  0.3509659E+06 -0.1466880E+01  0.6078919E+06  0.1674712E+01  0.3333255E-04  0.1760242E-02
  0.7895294E+00  0.2955517E+06 -0.1461500E+01  0.1706366E+06 -0.1461500E+01  0.9170009E+05 -0.2832111E+01  0.3550585E+06 -0.1462849E+01  0.6149815E+06  0.1678743E+01  0.3536971E-04  0.2633108E-04
  0.7958100E+00  0.2997037E+06 -0.1457306E+01  0.1730338E+06 -0.1457305E+01  0.9211166E+05 -0.2829871E+01  0.3591527E+06 -0.1458727E+01  0.6220708E+06  0.1682865E+01  0.3746202E-04  0.1491627E-02
  0.8020905E+00  0.3038618E+06 -0.1453011E+01  0.1754346E+06 -0.1453011E+01  0.9251931E+05 -0.2827706E+01  0.3631246E+06 -0.1454495E+01  0.6289510E+06  0.1687098E+01  0.3971242E-04 -0.6918244E-03
  0.8083712E+00  0.3080183E+06 -0.1448612E+01  0.1778343E+06 -0.1448612E+01  0.9292451E+05 -0.2825621E+01  0.3670047E+06 -0.1450152E+01  0.6356719E+06  0.1691441E+01  0.4210986E-04  0.1503923E-02
  0.8146517E+00  0.3121778E+06 -0.1444106E+01  0.1802358E+06 -0.1444105E+01  0.9315107E+05 -0.2823170E+01  0.3708132E+06 -0.1445697E+01  0.6422678E+06  0.1695895E+01  0.4460662E-04  0.2818607E-03
  0.8209324E+00  0.3163688E+06 -0.1439496E+01  0.1826554E+06 -0.1439496E+01  0.9336296E+05 -0.2820725E+01  0.3746441E+06 -0.1441142E+01  0.6489044E+06  0.1700450E+01  0.4720638E-04  0.1055488E-02
  0.8272130E+00  0.3205052E+06 -0.1434766E+01  0.1850436E+06 -0.1434766E+01  0.9356402E+05 -0.2818322E+01  0.3783585E+06 -0.1436468E+01  0.6553357E+06  0.1705124E+01  0.4991221E-04 -0.6064245E-03
  0.8334936E+00  0.3246103E+06 -0.1429921E+01  0.1874137E+06 -0.1429921E+01  0.9374470E+05 -0.2815935E+01  0.3819484E+06 -0.1431672E+01  0.6615547E+06  0.1709921E+01  0.5276641E-04 -0.5294974E-04
  0.8397742E+00  0.3287589E+06 -0.1424973E+01  0.1898088E+06 -0.1424972E+01  0.9391980E+05 -0.2813582E+01  0.3855851E+06 -0.1426776E+01  0.6678538E+06  0.1714816E+01  0.5578442E-04 -0.2754680E-03
  0.8460548E+00  0.3329111E+06 -0.1419916E+01  0.1922060E+06 -0.1419916E+01  0.9407587E+05 -0.2811236E+01  0.3891680E+06 -0.1421770E+01  0.6740600E+06  0.1719822E+01  0.5887666E-04  0.8304554E-03
  0.8523354E+00  0.3370272E+06 -0.1414742E+01  0.1945826E+06 -0.1414742E+01  0.9421662E+05 -0.2808910E+01  0.3926488E+06 -0.1416644E+01  0.6800884E+06  0.1724948E+01  0.6226119E-04 -0.5160619E-03
  0.8586160E+00  0.3411620E+06 -0.1409458E+01  0.1969698E+06 -0.1409458E+01  0.9434624E+05 -0.2806595E+01  0.3961609E+06 -0.1411415E+01  0.6861721E+06  0.1730177E+01  0.6570533E-04 -0.1218984E-02
  0.8648966E+00  0.3452431E+06 -0.1404054E+01  0.1993259E+06 -0.1404054E+01  0.9446123E+05 -0.2804309E+01  0.3995138E+06 -0.1406058E+01  0.6919789E+06  0.1735534E+01  0.6934170E-04  0.7722778E-03
  0.8711772E+00  0.3492973E+06 -0.1398536E+01  0.2016667E+06 -0.1398536E+01  0.9456423E+05 -0.2802061E+01  0.4027490E+06 -0.1400579E+01  0.6975834E+06  0.1741012E+01  0.7317890E-04  0.1463565E-03
  0.8774578E+00  0.3533296E+06 -0.1392901E+01  0.2039947E+06 -0.1392900E+01  0.9465841E+05 -0.2799848E+01  0.4059857E+06 -0.1394995E+01  0.7031889E+06  0.1746597E+01  0.7709933E-04 -0.6945723E-03
  0.8837384E+00  0.3573340E+06 -0.1387148E+01  0.2063065E+06 -0.1387147E+01  0.9473946E+05 -0.2797651E+01  0.4091904E+06 -0.1389303E+01  0.7087402E+06  0.1752289E+01  0.8120050E-04  0.2867355E-04
  0.8900191E+00  0.3613489E+06 -0.1381288E+01  0.2086247E+06 -0.1381287E+01  0.9480972E+05 -0.2795487E+01  0.4123881E+06 -0.1383511E+01  0.7142786E+06  0.1758082E+01  0.8561888E-04  0.3480813E-03
  0.8962996E+00  0.3652769E+06 -0.1375299E+01  0.2108924E+06 -0.1375300E+01  0.9487213E+05 -0.2793356E+01  0.4154394E+06 -0.1377588E+01  0.7195625E+06  0.1764005E+01  0.9010191E-04  0.1653812E-03
  0.9025802E+00  0.3690879E+06 -0.1369176E+01  0.2130926E+06 -0.1369175E+01  0.9492722E+05 -0.2791272E+01  0.4182898E+06 -0.1371528E+01  0.7245002E+06  0.1770065E+01  0.9477885E-04 -0.6092287E-03
  0.9088608E+00  0.3728681E+06 -0.1362936E+01  0.2152753E+06 -0.1362936E+01  0.9497470E+05 -0.2789230E+01  0.4210698E+06 -0.1365356E+01  0.7293153E+06  0.1776236E+01  0.9963278E-04 -0.3131430E-03
  0.9151415E+00  0.3766559E+06 -0.1356590E+01  0.2174622E+06 -0.1356590E+01  0.9501220E+05 -0.2787196E+01  0.4238719E+06 -0.1359088E+01  0.7341692E+06  0.1782504E+01  0.1047265E-03  0.1022684E-03
  0.9214220E+00  0.3804406E+06 -0.1350136E+01  0.2196472E+06 -0.1350136E+01  0.9504425E+05 -0.2785206E+01  0.4266726E+06 -0.1352723E+01  0.7390204E+06  0.1788870E+01  0.1101125E-03 -0.8373338E-03
  0.9277027E+00  0.3841200E+06 -0.1343560E+01  0.2217715E+06 -0.1343559E+01  0.9507257E+05 -0.2783275E+01  0.4292421E+06 -0.1346225E+01  0.7434708E+06  0.1795367E+01  0.1156743E-03 -0.2093324E-03
  0.9339832E+00  0.3877522E+06 -0.1336870E+01  0.2238684E+06 -0.1336870E+01  0.9509698E+05 -0.2781401E+01  0.4317198E+06 -0.1339617E+01  0.7477614E+06  0.1801975E+01  0.1214192E-03 -0.4985700E-03
  0.9402639E+00  0.3913242E+06 -0.1330062E+01  0.2259307E+06 -0.1330062E+01  0.9493599E+05 -0.2779302E+01  0.4340905E+06 -0.1332895E+01  0.7518682E+06  0.1808697E+01  0.1274508E-03 -0.8476484E-03
  0.9465445E+00  0.3948855E+06 -0.1323151E+01  0.2279870E+06 -0.1323151E+01  0.9476795E+05 -0.2777208E+01  0.4364802E+06 -0.1326086E+01  0.7560078E+06  0.1815506E+01  0.1337751E-03  0.1044278E-03
  0.9528251E+00  0.3983109E+06 -0.1316104E+01  0.2299646E+06 -0.1316104E+01  0.9459615E+05 -0.2775148E+01  0.4387176E+06 -0.1319155E+01  0.7598826E+06  0.1822438E+01  0.1403161E-03 -0.9955980E-03
  0.9591056E+00  0.4016364E+06 -0.1308940E+01  0.2318846E+06 -0.1308940E+01  0.9440773E+05 -0.2773114E+01  0.4407652E+06 -0.1312103E+01  0.7634295E+06  0.1829489E+01  0.1470117E-03 -0.9692590E-03
  0.9653863E+00  0.4049198E+06 -0.1301667E+01  0.2337803E+06 -0.1301667E+01  0.9420622E+05 -0.2771078E+01  0.4427813E+06 -0.1304954E+01  0.7669209E+06  0.1836638E+01  0.1541688E-03 -0.3624557E-03
  0.9716668E+00  0.4081714E+06 -0.1294293E+01  0.2356575E+06 -0.1294292E+01  0.9399700E+05 -0.2769070E+01  0.4447812E+06 -0.1297718E+01  0.7703845E+06  0.1843875E+01  0.1614764E-03 -0.3518204E-03
  0.9779475E+00  0.4113515E+06 -0.1286818E+01  0.2374936E+06 -0.1286818E+01  0.9376832E+05 -0.2767042E+01  0.4466300E+06 -0.1290385E+01  0.7735882E+06  0.1851207E+01  0.1691821E-03 -0.5339707E-03
  0.9842281E+00  0.4144157E+06 -0.1279224E+01  0.2392628E+06 -0.1279224E+01  0.9352880E+05 -0.2765031E+01  0.4483566E+06 -0.1282949E+01  0.7765773E+06  0.1858644E+01  0.1770460E-03 -0.5312946E-03
  0.9905087E+00  0.4174518E+06 -0.1271534E+01  0.2410157E+06 -0.1271534E+01  0.9327742E+05 -0.2763012E+01  0.4501020E+06 -0.1275438E+01  0.7796007E+06  0.1866155E+01  0.1854599E-03 -0.5624295E-03
  0.9967892E+00  0.4203665E+06 -0.1263762E+01  0.2426983E+06 -0.1263762E+01  0.9301356E+05 -0.2761013E+01  0.4515454E+06 -0.1267817E+01  0.7821010E+06  0.1873775E+01  0.1940240E-03 -0.1344011E-03
  0.1003070E+01  0.4232221E+06 -0.1255934E+01  0.2443472E+06 -0.1255934E+01  0.9273922E+05 -0.2759047E+01  0.4527716E+06 -0.1260117E+01  0.7842254E+06  0.1881474E+01  0.2029738E-03  0.6882584E-04
  0.1009351E+01  0.4259811E+06 -0.1248019E+01  0.2459399E+06 -0.1248018E+01  0.9245679E+05 -0.2757102E+01  0.4538695E+06 -0.1252336E+01  0.7861267E+06  0.1889256E+01  0.2122375E-03  0.5221857E-03
  0.1015631E+01  0.4286634E+06 -0.1240024E+01  0.2474888E+06 -0.1240024E+01  0.9216612E+05 -0.2755188E+01  0.4548812E+06 -0.1244484E+01  0.7878779E+06  0.1897109E+01  0.2218303E-03  0.2435047E-03
  0.1021912E+01  0.4312686E+06 -0.1231946E+01  0.2489926E+06 -0.1231946E+01  0.9186126E+05 -0.2753266E+01  0.4557818E+06 -0.1236560E+01  0.7894391E+06  0.1905033E+01  0.2318470E-03  0.7029700E-03
  0.1028192E+01  0.4338212E+06 -0.1223801E+01  0.2504666E+06 -0.1223801E+01  0.9154928E+05 -0.2751372E+01  0.4566074E+06 -0.1228571E+01  0.7908689E+06  0.1913022E+01  0.2421185E-03  0.1007798E-02
  0.1034473E+01  0.4362120E+06 -0.1215555E+01  0.2518470E+06 -0.1215555E+01  0.9123045E+05 -0.2749496E+01  0.4571841E+06 -0.1220468E+01  0.7918678E+06  0.1921124E+01  0.2528846E-03  0.1097473E-02
  0.1040753E+01  0.4384198E+06 -0.1207209E+01  0.2531215E+06 -0.1207209E+01  0.9090688E+05 -0.2747651E+01  0.4574718E+06 -0.1212254E+01  0.7923661E+06  0.1929338E+01  0.2639617E-03  0.1072588E-02
  0.1047034E+01  0.4405142E+06 -0.1198781E+01  0.2543307E+06 -0.1198781E+01  0.9057936E+05 -0.2745842E+01  0.4576004E+06 -0.1203965E+01  0.7925882E+06  0.1937628E+01  0.2753598E-03  0.1051865E-02
  0.1053315E+01  0.4425522E+06 -0.1190293E+01  0.2555074E+06 -0.1190292E+01  0.9023945E+05 -0.2744017E+01  0.4576592E+06 -0.1195618E+01  0.7926904E+06  0.1945974E+01  0.2872108E-03  0.9144260E-03
  0.1059595E+01  0.4445226E+06 -0.1181735E+01  0.2566451E+06 -0.1181734E+01  0.8989254E+05 -0.2742205E+01  0.4576838E+06 -0.1187218E+01  0.7927332E+06  0.1954374E+01  0.2995601E-03  0.1022850E-02
  0.1065876E+01  0.4463973E+06 -0.1173109E+01  0.2577274E+06 -0.1173109E+01  0.8954296E+05 -0.2740428E+01  0.4575963E+06 -0.1178760E+01  0.7925822E+06  0.1962832E+01  0.3122186E-03  0.9455854E-03
  0.1072156E+01  0.4480991E+06 -0.1164418E+01  0.2587098E+06 -0.1164418E+01  0.8919203E+05 -0.2738694E+01  0.4571902E+06 -0.1170216E+01  0.7918779E+06  0.1971376E+01  0.3254506E-03  0.7812279E-03
  0.1078437E+01  0.4496922E+06 -0.1155662E+01  0.2596297E+06 -0.1155662E+01  0.8884040E+05 -0.2736997E+01  0.4566523E+06 -0.1161611E+01  0.7909464E+06  0.1979981E+01  0.3389982E-03  0.6895670E-03
  0.1084718E+01  0.4511544E+06 -0.1146833E+01  0.2604740E+06 -0.1146833E+01  0.8833416E+05 -0.2735335E+01  0.4559405E+06 -0.1152936E+01  0.7897138E+06  0.1988656E+01  0.3531874E-03  0.7172390E-03
  0.1090998E+01  0.4525435E+06 -0.1137955E+01  0.2612757E+06 -0.1137955E+01  0.8781434E+05 -0.2733652E+01  0.4551754E+06 -0.1144224E+01  0.7883877E+06  0.1997369E+01  0.3678104E-03  0.6558069E-03
  0.1097279E+01  0.4537698E+06 -0.1129002E+01  0.2619839E+06 -0.1129002E+01  0.8730098E+05 -0.2731980E+01  0.4542422E+06 -0.1135442E+01  0.7867728E+06  0.2006149E+01  0.3828089E-03  0.5425292E-03
  0.1103559E+01  0.4548359E+06 -0.1119982E+01  0.2625993E+06 -0.1119983E+01  0.8677834E+05 -0.2730331E+01  0.4531174E+06 -0.1126603E+01  0.7848234E+06  0.2014989E+01  0.3983138E-03  0.2852559E-03
  0.1109840E+01  0.4557393E+06 -0.1110906E+01  0.2631208E+06 -0.1110905E+01  0.8624471E+05 -0.2728702E+01  0.4517674E+06 -0.1117700E+01  0.7824857E+06  0.2023892E+01  0.4144473E-03  0.6067288E-04
  0.1116121E+01  0.4565582E+06 -0.1101782E+01  0.2635938E+06 -0.1101783E+01  0.8570591E+05 -0.2727074E+01  0.4503937E+06 -0.1108765E+01  0.7801059E+06  0.2032827E+01  0.4309937E-03 -0.1123654E-03
  0.1122401E+01  0.4572800E+06 -0.1092626E+01  0.2640105E+06 -0.1092626E+01  0.8516188E+05 -0.2725471E+01  0.4489475E+06 -0.1099808E+01  0.7776014E+06  0.2041785E+01  0.4481632E-03 -0.2930104E-03
  0.1128682E+01  0.4578666E+06 -0.1083438E+01  0.2643491E+06 -0.1083438E+01  0.8460048E+05 -0.2723829E+01  0.4473020E+06 -0.1090836E+01  0.7747511E+06  0.2050756E+01  0.4658475E-03 -0.6077569E-03
  0.1134963E+01  0.4582818E+06 -0.1074195E+01  0.2645888E+06 -0.1074194E+01  0.8403359E+05 -0.2722197E+01  0.4454868E+06 -0.1081816E+01  0.7716074E+06  0.2059776E+01  0.4842381E-03 -0.4712022E-03
  0.1141243E+01  0.4586028E+06 -0.1064919E+01  0.2647740E+06 -0.1064918E+01  0.8345981E+05 -0.2720559E+01  0.4436492E+06 -0.1072781E+01  0.7684251E+06  0.2068811E+01  0.5030306E-03 -0.7127980E-03
  0.1147524E+01  0.4587777E+06 -0.1055618E+01  0.2648752E+06 -0.1055617E+01  0.8287614E+05 -0.2718924E+01  0.4416237E+06 -0.1063716E+01  0.7649162E+06  0.2077876E+01  0.5227168E-03 -0.1028039E-02
  0.1153804E+01  0.4588154E+06 -0.1046345E+01  0.2648967E+06 -0.1046344E+01  0.8228759E+05 -0.2717315E+01  0.4393525E+06 -0.1054653E+01  0.7609824E+06  0.2086938E+01  0.5429419E-03 -0.4837220E-03
  0.1160085E+01  0.4587123E+06 -0.1037082E+01  0.2648371E+06 -0.1037082E+01  0.8169574E+05 -0.2715730E+01  0.4368654E+06 -0.1045589E+01  0.7566741E+06  0.2096004E+01  0.5638251E-03 -0.2196885E-03
  0.1166366E+01  0.4584737E+06 -0.1027799E+01  0.2646996E+06 -0.1027799E+01  0.8110014E+05 -0.2714160E+01  0.4343098E+06 -0.1036528E+01  0.7522475E+06  0.2105063E+01  0.5853253E-03 -0.1416096E-03
  0.1172646E+01  0.4581101E+06 -0.1018514E+01  0.2644898E+06 -0.1018513E+01  0.8050213E+05 -0.2712606E+01  0.4316478E+06 -0.1027471E+01  0.7476379E+06  0.2114120E+01  0.6072217E-03  0.1625768E-03
  0.1178927E+01  0.4576250E+06 -0.1009225E+01  0.2642095E+06 -0.1009225E+01  0.7989168E+05 -0.2711033E+01  0.4288759E+06 -0.1018434E+01  0.7428362E+06  0.2123157E+01  0.6300245E-03  0.5129466E-03
  0.1185207E+01  0.4570405E+06 -0.9999534E+00  0.2638723E+06 -0.9999531E+00  0.7927914E+05 -0.2709483E+01  0.4260242E+06 -0.1009423E+01  0.7378973E+06  0.2132169E+01  0.6534303E-03  0.4817454E-03
  0.1191488E+01  0.4563342E+06 -0.9906775E+00  0.2634643E+06 -0.9906772E+00  0.7866253E+05 -0.2707947E+01  0.4231016E+06 -0.1000418E+01  0.7328350E+06  0.2141174E+01  0.6776120E-03  0.6954559E-03
  0.1197769E+01  0.4553552E+06 -0.9813817E+00  0.2628992E+06 -0.9813809E+00  0.7804665E+05 -0.2706423E+01  0.4197626E+06 -0.9913406E+00  0.7270522E+06  0.2150251E+01  0.7024395E-03  0.7729651E-03
  0.1204049E+01  0.4542223E+06 -0.9720775E+00  0.2622452E+06 -0.9720768E+00  0.7743156E+05 -0.2704912E+01  0.4162926E+06 -0.9822803E+00  0.7210416E+06  0.2159311E+01  0.7277702E-03  0.8740306E-03
  0.1210330E+01  0.4529726E+06 -0.9627887E+00  0.2615234E+06 -0.9627880E+00  0.7681629E+05 -0.2703415E+01  0.4127137E+06 -0.9732451E+00  0.7148418E+06  0.2168347E+01  0.7540038E-03  0.9189663E-03
  0.1216610E+01  0.4516368E+06 -0.9535241E+00  0.2607523E+06 -0.9535235E+00  0.7618855E+05 -0.2701892E+01  0.4091088E+06 -0.9642474E+00  0.7085984E+06  0.2177345E+01  0.7808746E-03  0.7740404E-03
  0.1222891E+01  0.4502077E+06 -0.9442734E+00  0.2599272E+06 -0.9442731E+00  0.7555758E+05 -0.2700382E+01  0.4054786E+06 -0.9552772E+00  0.7023110E+06  0.2186315E+01  0.8086424E-03  0.6679926E-03
  0.1229172E+01  0.4486811E+06 -0.9350475E+00  0.2590457E+06 -0.9350468E+00  0.7492775E+05 -0.2698889E+01  0.4017993E+06 -0.9463446E+00  0.6959386E+06  0.2195247E+01  0.8372882E-03  0.7152143E-03
  0.1235452E+01  0.4469605E+06 -0.9258572E+00  0.2580525E+06 -0.9258565E+00  0.7430155E+05 -0.2697419E+01  0.3978311E+06 -0.9374440E+00  0.6890644E+06  0.2204147E+01  0.8666958E-03  0.5265378E-03
  0.1241733E+01  0.4451322E+06 -0.9166984E+00  0.2569966E+06 -0.9166986E+00  0.7367816E+05 -0.2695965E+01  0.3937830E+06 -0.9285865E+00  0.6820533E+06  0.2213006E+01  0.8970090E-03  0.4495637E-03
  0.1248013E+01  0.4431547E+06 -0.9075566E+00  0.2558551E+06 -0.9075558E+00  0.7301800E+05 -0.2694640E+01  0.3895832E+06 -0.9197377E+00  0.6747801E+06  0.2221854E+01  0.9280664E-03  0.2147508E-03
  0.1254294E+01  0.4410748E+06 -0.8984392E+00  0.2546542E+06 -0.8984383E+00  0.7229041E+05 -0.2693480E+01  0.3853213E+06 -0.9109324E+00  0.6673977E+06  0.2230659E+01  0.9601590E-03  0.2424918E-04
  0.1260575E+01  0.4389140E+06 -0.8893627E+00  0.2534068E+06 -0.8893615E+00  0.7156119E+05 -0.2692299E+01  0.3810548E+06 -0.9021766E+00  0.6600078E+06  0.2239415E+01  0.9931813E-03 -0.2372423E-03
  0.1266855E+01  0.4365836E+06 -0.8802912E+00  0.2520610E+06 -0.8802909E+00  0.7083962E+05 -0.2691097E+01  0.3766609E+06 -0.8934417E+00  0.6523972E+06  0.2248150E+01  0.1027010E-02 -0.3355267E-03
  0.1273136E+01  0.4341211E+06 -0.8712409E+00  0.2506393E+06 -0.8712402E+00  0.7011770E+05 -0.2689913E+01  0.3721779E+06 -0.8847513E+00  0.6446326E+06  0.2256841E+01  0.1061504E-02 -0.5343129E-03
  0.1279416E+01  0.4314923E+06 -0.8622299E+00  0.2491217E+06 -0.8622288E+00  0.6939620E+05 -0.2688755E+01  0.3674948E+06 -0.8760974E+00  0.6365221E+06  0.2265494E+01  0.1097072E-02 -0.7258234E-03
  0.1285697E+01  0.4287994E+06 -0.8532840E+00  0.2475668E+06 -0.8532834E+00  0.6866854E+05 -0.2687610E+01  0.3628272E+06 -0.8675132E+00  0.6284369E+06  0.2274079E+01  0.1133464E-02 -0.8257689E-03
  0.1291978E+01  0.4260394E+06 -0.8444241E+00  0.2459735E+06 -0.8444232E+00  0.6794402E+05 -0.2686487E+01  0.3581510E+06 -0.8590004E+00  0.6203371E+06  0.2282592E+01  0.1171097E-02 -0.6099620E-03
  0.1298258E+01  0.4231962E+06 -0.8356474E+00  0.2443318E+06 -0.8356469E+00  0.6721522E+05 -0.2685364E+01  0.3534203E+06 -0.8505845E+00  0.6121432E+06  0.2291007E+01  0.1209598E-02 -0.4250091E-03
  0.1304539E+01  0.4202522E+06 -0.8269441E+00  0.2426322E+06 -0.8269424E+00  0.6647680E+05 -0.2684218E+01  0.3485982E+06 -0.8422768E+00  0.6037916E+06  0.2299315E+01  0.1249433E-02 -0.9391988E-04
  0.1310819E+01  0.4171730E+06 -0.8182825E+00  0.2408543E+06 -0.8182815E+00  0.6574032E+05 -0.2683072E+01  0.3436779E+06 -0.8340027E+00  0.5952689E+06  0.2307589E+01  0.1290207E-02  0.1082759E-03
  0.1317100E+01  0.4140348E+06 -0.8096784E+00  0.2390425E+06 -0.8096775E+00  0.6500177E+05 -0.2681938E+01  0.3388052E+06 -0.8257845E+00  0.5868295E+06  0.2315808E+01  0.1331913E-02  0.2503268E-03
  0.1323381E+01  0.4108053E+06 -0.8011454E+00  0.2371779E+06 -0.8011451E+00  0.6425870E+05 -0.2680817E+01  0.3338721E+06 -0.8176246E+00  0.5782854E+06  0.2323967E+01  0.1375019E-02  0.3528816E-03
  0.1329661E+01  0.4074480E+06 -0.7926793E+00  0.2352396E+06 -0.7926781E+00  0.6351944E+05 -0.2679708E+01  0.3287829E+06 -0.8095220E+00  0.5694699E+06  0.2332069E+01  0.1419161E-02  0.5663426E-03
  0.1335942E+01  0.4040096E+06 -0.7842948E+00  0.2332545E+06 -0.7842938E+00  0.6278338E+05 -0.2678619E+01  0.3236491E+06 -0.8015162E+00  0.5605781E+06  0.2340075E+01  0.1464672E-02  0.6225044E-03
  0.1342222E+01  0.4004683E+06 -0.7759686E+00  0.2312101E+06 -0.7759672E+00  0.6205079E+05 -0.2677541E+01  0.3184641E+06 -0.7935923E+00  0.5515971E+06  0.2347999E+01  0.1511119E-02  0.6409656E-03
  0.1348503E+01  0.3968533E+06 -0.7676871E+00  0.2291228E+06 -0.7676865E+00  0.6132134E+05 -0.2676476E+01  0.3133101E+06 -0.7857441E+00  0.5426706E+06  0.2355849E+01  0.1558537E-02  0.6507454E-03
  0.1354784E+01  0.3931488E+06 -0.7594553E+00  0.2269840E+06 -0.7594547E+00  0.6059403E+05 -0.2675406E+01  0.3081463E+06 -0.7779652E+00  0.5337262E+06  0.2363626E+01  0.1607000E-02  0.5476664E-03
  0.1361064E+01  0.3893800E+06 -0.7512970E+00  0.2248082E+06 -0.7512965E+00  0.5985964E+05 -0.2674338E+01  0.3029854E+06 -0.7703021E+00  0.5247878E+06  0.2371290E+01  0.1656692E-02  0.3575323E-03
  0.1367345E+01  0.3855558E+06 -0.7432104E+00  0.2226004E+06 -0.7432087E+00  0.5912912E+05 -0.2673276E+01  0.2978472E+06 -0.7627295E+00  0.5158873E+06  0.2378862E+01  0.1707800E-02  0.2999340E-03
  0.1373626E+01  0.3816875E+06 -0.7351922E+00  0.2203668E+06 -0.7351915E+00  0.5840046E+05 -0.2672231E+01  0.2927642E+06 -0.7552369E+00  0.5070836E+06  0.2386354E+01  0.1760298E-02  0.1756516E-03
  0.1379906E+01  0.3776372E+06 -0.7272208E+00  0.2180286E+06 -0.7272195E+00  0.5767889E+05 -0.2671180E+01  0.2874285E+06 -0.7477341E+00  0.4978417E+06  0.2393858E+01  0.1813856E-02  0.1263085E-03
  0.1386187E+01  0.3734940E+06 -0.7193015E+00  0.2156365E+06 -0.7193003E+00  0.5696370E+05 -0.2670125E+01  0.2820430E+06 -0.7402912E+00  0.4885140E+06  0.2401301E+01  0.1868503E-02 -0.6230407E-04
  0.1392467E+01  0.3692746E+06 -0.7114496E+00  0.2132005E+06 -0.7114483E+00  0.5625481E+05 -0.2669059E+01  0.2766328E+06 -0.7329732E+00  0.4791433E+06  0.2408618E+01  0.1924267E-02 -0.2971688E-03
  0.1398748E+01  0.3650112E+06 -0.7036678E+00  0.2107390E+06 -0.7036666E+00  0.5554753E+05 -0.2667991E+01  0.2712631E+06 -0.7257540E+00  0.4698419E+06  0.2415838E+01  0.1981416E-02 -0.5776653E-03
  0.1405028E+01  0.3607205E+06 -0.6959624E+00  0.2082617E+06 -0.6959612E+00  0.5483272E+05 -0.2666935E+01  0.2659709E+06 -0.7186401E+00  0.4606759E+06  0.2422952E+01  0.2040142E-02 -0.8016122E-03
  0.1411309E+01  0.3564103E+06 -0.6883640E+00  0.2057731E+06 -0.6883635E+00  0.5411885E+05 -0.2665922E+01  0.2607442E+06 -0.7116393E+00  0.4516230E+06  0.2429952E+01  0.2099831E-02 -0.7477792E-03
  0.1417590E+01  0.3520712E+06 -0.6808591E+00  0.2032679E+06 -0.6808593E+00  0.5340978E+05 -0.2664920E+01  0.2555654E+06 -0.7047476E+00  0.4426533E+06  0.2436844E+01  0.2161137E-02 -0.5128199E-03
  0.1423870E+01  0.3476585E+06 -0.6734595E+00  0.2007203E+06 -0.6734583E+00  0.5270895E+05 -0.2663920E+01  0.2503153E+06 -0.6980063E+00  0.4335597E+06  0.2443585E+01  0.2223566E-02 -0.3040791E-03
  0.1430151E+01  0.3431881E+06 -0.6661521E+00  0.1981394E+06 -0.6661512E+00  0.5201592E+05 -0.2662921E+01  0.2450354E+06 -0.6913968E+00  0.4244151E+06  0.2450194E+01  0.2287764E-02 -0.9485165E-04
  0.1436431E+01  0.3386871E+06 -0.6589346E+00  0.1955407E+06 -0.6589331E+00  0.5132975E+05 -0.2661919E+01  0.2397940E+06 -0.6848893E+00  0.4153363E+06  0.2456702E+01  0.2353447E-02  0.3007526E-04
  0.1442712E+01  0.3341136E+06 -0.6517828E+00  0.1929001E+06 -0.6517819E+00  0.5061951E+05 -0.2661215E+01  0.2344936E+06 -0.6784337E+00  0.4061558E+06  0.2463158E+01  0.2420628E-02  0.2762463E-03
  0.1448993E+01  0.3295294E+06 -0.6447201E+00  0.1902533E+06 -0.6447200E+00  0.4988890E+05 -0.2660650E+01  0.2292711E+06 -0.6721073E+00  0.3971103E+06  0.2469485E+01  0.2489557E-02  0.3965373E-03
  0.1455273E+01  0.3249294E+06 -0.6377370E+00  0.1875978E+06 -0.6377364E+00  0.4916261E+05 -0.2660063E+01  0.2241323E+06 -0.6658589E+00  0.3882101E+06  0.2475732E+01  0.2560083E-02  0.5489533E-03
  0.1461554E+01  0.3202651E+06 -0.6308029E+00  0.1849048E+06 -0.6308022E+00  0.4844678E+05 -0.2659434E+01  0.2189986E+06 -0.6596853E+00  0.3793172E+06  0.2481907E+01  0.2632016E-02  0.5831346E-03
  0.1467834E+01  0.3155516E+06 -0.6239279E+00  0.1821834E+06 -0.6239275E+00  0.4773655E+05 -0.2658795E+01  0.2138841E+06 -0.6536003E+00  0.3704592E+06  0.2487991E+01  0.2705283E-02  0.4981452E-03