VARIABLES="w (rad/s)"
"abs(F   1   1)" "angle(F   1   1)"
"abs(F   1   2)" "angle(F   1   2)"
"abs(F   1   3)" "angle(F   1   3)"
"abs(F   1   4)" "angle(F   1   4)"
"abs(F   1   5)" "angle(F   1   5)"
"abs(F   1   6)" "angle(F   1   6)"
Zone t="Diffraction force - beta =   0.000 deg",I=   300,F=POINT
  0.2000000E-01  0.5603161E+03 -0.1570876E+01  0.6619795E-01  0.1151387E-03  0.7870508E+06 -0.6522042E-07  0.2991167E+01  0.2460979E-05  0.1344570E+04  0.1570937E+01  0.3725522E-08  0.1525785E-02
  0.4000000E-01  0.2240245E+04 -0.1570771E+01  0.2769663E-01 -0.3141292E+01  0.7857502E+06 -0.1042643E-05  0.1290121E+01  0.2330830E-04  0.5374478E+04  0.1570809E+01  0.3726662E-08 -0.3139640E+01
  0.6000000E-01  0.5035125E+04 -0.1570821E+01  0.3360086E-01  0.3140460E+01  0.7835804E+06 -0.5260842E-05  0.1598225E+00 -0.3580245E-03  0.1206465E+05  0.1570767E+01  0.9315773E-08 -0.3116206E+01
  0.8000000E-01  0.8944182E+04 -0.1570796E+01  0.1300623E+00  0.9183890E-03  0.7805375E+06 -0.1656683E-04  0.1504321E-01 -0.3128026E+01  0.2143383E+05  0.1570815E+01  0.1852112E-08  0.3732910E-01
  0.9999999E-01  0.1397994E+05 -0.1570796E+01  0.5926457E-01 -0.3140633E+01  0.7766504E+06 -0.4025108E-04  0.2112077E+01 -0.3141233E+01  0.3350700E+05  0.1570785E+01  0.9329507E-08  0.1325846E-01
  0.1200000E+00  0.2013005E+05 -0.1570795E+01  0.2034273E+00 -0.8180618E-03  0.7719096E+06 -0.8296066E-04  0.1386819E+01  0.3141354E+01  0.4817786E+05  0.1570781E+01  0.1879861E-08 -0.3013517E+01
  0.1400000E+00  0.2736481E+05 -0.1570792E+01  0.7459307E-01 -0.1243344E-02  0.7663274E+06 -0.1526316E-03  0.4701797E+01  0.1049668E-04  0.6538602E+05  0.1570801E+01  0.1312609E-07  0.3065022E+01
  0.1600000E+00  0.3566566E+05 -0.1570787E+01  0.7818460E-02  0.3073721E+01  0.7599301E+06 -0.2582947E-03  0.3565684E+01  0.3141570E+01  0.8513835E+05  0.1570798E+01  0.2313766E-08  0.6403565E+00
  0.1800000E+00  0.4503719E+05 -0.1570786E+01  0.9931038E-01 -0.2688834E-03  0.7527303E+06 -0.4099786E-03  0.2940850E+01 -0.3140982E+01  0.1072380E+06  0.1570814E+01  0.3749117E-08  0.3028792E+01
  0.2000000E+00  0.5541873E+05 -0.1570771E+01  0.7587632E-01  0.3128364E+01  0.7447332E+06 -0.6185669E-03  0.1008486E+01 -0.6104172E-03  0.1318454E+06  0.1570815E+01  0.1114737E-07  0.3131149E+01
  0.2200000E+00  0.6685937E+05 -0.1570755E+01  0.8292637E-01 -0.3132025E+01  0.7359605E+06 -0.8955825E-03  0.1513121E+01 -0.3141535E+01  0.1586706E+06  0.1570841E+01  0.1137429E-07  0.2938050E+01
  0.2400000E+00  0.7928884E+05 -0.1570730E+01  0.3468906E-01 -0.3091234E+01  0.7265142E+06 -0.1253204E-02  0.2511002E+01  0.1716686E-03  0.1877406E+06  0.1570862E+01  0.2711386E-08  0.1629867E+01
  0.2600000E+00  0.9268200E+05 -0.1570690E+01  0.4048080E-01  0.3135868E+01  0.7162921E+06 -0.1703648E-02  0.2838142E+00 -0.3122062E+01  0.2191188E+06  0.1570904E+01  0.1023930E-07  0.4216875E+00
  0.2800000E+00  0.1070853E+06 -0.1570630E+01  0.4408553E-01 -0.3074980E+01  0.7054739E+06 -0.2259908E-02  0.1589469E+01  0.1121991E-02  0.2523521E+06  0.1570964E+01  0.5848801E-08  0.3241109E+00
  0.3000000E+00  0.1223801E+06 -0.1570548E+01  0.2032296E-01 -0.4811767E-01  0.6939332E+06 -0.2934083E-02  0.9731403E-01 -0.3002238E+01  0.2876466E+06  0.1571044E+01  0.8081646E-08  0.2803898E+01
  0.3200000E+00  0.1385552E+06 -0.1570434E+01  0.9993412E-02 -0.1639680E+01  0.6818928E+06 -0.3739549E-02  0.2912266E+01  0.3139235E+01  0.3250295E+06  0.1571159E+01  0.4952464E-08  0.2391523E+01
  0.3400000E+00  0.1556775E+06 -0.1570283E+01  0.1567265E+00  0.6243211E-02  0.6691552E+06 -0.4687852E-02  0.2149624E+01  0.3140829E+01  0.3639801E+06  0.1571311E+01  0.4350901E-08  0.5805816E+00
  0.3600000E+00  0.1736673E+06 -0.1570081E+01  0.1078537E+00 -0.3122174E+01  0.6560567E+06 -0.5792127E-02  0.8781721E+00 -0.3129594E+01  0.4044855E+06  0.1571514E+01  0.9279344E-08 -0.2149268E+00
  0.3800000E+00  0.1924540E+06 -0.1569819E+01  0.6243623E-02  0.2972463E+01  0.6424003E+06 -0.7063714E-02  0.1558669E+01  0.7213796E-02  0.4467957E+06  0.1571773E+01  0.1150132E-07  0.2038470E+00
  0.4000000E+00  0.2119847E+06 -0.1569485E+01  0.7526512E-01  0.3135030E+01  0.6282478E+06 -0.8512739E-02  0.2666285E+01 -0.3134330E+01  0.4907566E+06  0.1572107E+01  0.5642242E-08 -0.3805064E+00
  0.4200000E+00  0.2323884E+06 -0.1569063E+01  0.1031627E+00  0.4190769E-01  0.6138449E+06 -0.1015267E-01  0.1273936E+01  0.1193604E-01  0.5357842E+06  0.1572528E+01  0.2096011E-07  0.2756294E+00
  0.4400000E+00  0.2535473E+06 -0.1568541E+01  0.1091112E-01 -0.2914944E+00  0.5989926E+06 -0.1199236E-01  0.8605922E+00  0.2994253E-01  0.5819386E+06  0.1573053E+01  0.3712533E-08 -0.2289626E+01
  0.4600000E+00  0.2753948E+06 -0.1567896E+01  0.1108895E-01 -0.9731331E+00  0.5837690E+06 -0.1404024E-01  0.1108405E+01  0.3138172E+01  0.6292422E+06  0.1573696E+01  0.7364652E-08  0.1479779E+01
  0.4800000E+00  0.2978777E+06 -0.1567111E+01  0.4153168E-01  0.2388109E-02  0.5684682E+06 -0.1630847E-01  0.2369283E+00 -0.2362176E-01  0.6776964E+06  0.1574482E+01  0.1876030E-07 -0.2998379E+01
  0.5000000E+00  0.3210149E+06 -0.1566167E+01  0.2527568E-01 -0.2546202E+01  0.5528649E+06 -0.1880671E-01  0.2932352E+00  0.3038535E+01  0.7274447E+06  0.1575426E+01  0.1912332E-07  0.2407872E+01
  0.5200000E+00  0.3448022E+06 -0.1565039E+01  0.8792497E-01 -0.1706390E+00  0.5369381E+06 -0.2154244E-01  0.6368740E+00 -0.3096900E+01  0.7775301E+06  0.1576555E+01  0.5259343E-08 -0.8865609E-01
  0.5400000E+00  0.3692354E+06 -0.1563703E+01  0.6107419E-01  0.3805702E+00  0.5210529E+06 -0.2451932E-01  0.7172394E+00  0.3141141E+01  0.8279161E+06  0.1577890E+01  0.1319775E-07 -0.1238080E+00
  0.5600000E+00  0.3942685E+06 -0.1562135E+01  0.3922093E-01 -0.2619540E+01  0.5051123E+06 -0.2775360E-01  0.1265163E+01 -0.2086509E-02  0.8788997E+06  0.1579458E+01  0.2069648E-07  0.2949161E+01
  0.5800000E+00  0.4198248E+06 -0.1560304E+01  0.3899045E-01 -0.5436493E+00  0.4890280E+06 -0.3125329E-01  0.6084574E+00 -0.3080717E+01  0.9304112E+06  0.1581287E+01  0.8082277E-08  0.1773842E+01
  0.6000000E+00  0.4456792E+06 -0.1558185E+01  0.3171782E-01 -0.1208197E+01  0.4727816E+06 -0.3502834E-01  0.9433639E+00 -0.3104155E+01  0.9820815E+06  0.1583407E+01  0.4382228E-08  0.2450256E+01
  0.6199999E+00  0.4719830E+06 -0.1555747E+01  0.2327526E-01  0.3588810E+00  0.4567297E+06 -0.3906735E-01  0.6561581E+00  0.9378425E-01  0.1034122E+07  0.1585846E+01  0.1619398E-07 -0.2205670E+01
  0.6400000E+00  0.4987147E+06 -0.1552963E+01  0.8685598E-01 -0.3101527E+01  0.4408188E+06 -0.4339091E-01  0.3515688E+00  0.3093702E+01  0.1085994E+07  0.1588630E+01  0.1271008E-07  0.2994514E+01
  0.6600000E+00  0.5259478E+06 -0.1549802E+01  0.7516263E-01 -0.3041341E+01  0.4249190E+06 -0.4802252E-01  0.3846360E+00 -0.1415211E+00  0.1137310E+07  0.1591790E+01  0.2272642E-07 -0.8924553E+00
  0.6799999E+00  0.5534282E+06 -0.1546231E+01  0.6014839E-01 -0.5525691E+00  0.4090298E+06 -0.5297169E-01  0.1063181E+01 -0.3068087E+01  0.1187983E+07  0.1595359E+01  0.1075882E-07  0.6240230E+00
  0.7000000E+00  0.5811693E+06 -0.1542218E+01  0.1861045E+00 -0.4691574E-01  0.3931319E+06 -0.5826050E-01  0.3654308E+00 -0.2100478E+00  0.1238021E+07  0.1599371E+01  0.1467018E-07 -0.6276294E+00
  0.7200000E+00  0.6090326E+06 -0.1537731E+01  0.2746467E-02  0.1675855E+01  0.3778204E+06 -0.6378058E-01  0.2507715E+00  0.2893035E+01  0.1287143E+07  0.1603857E+01  0.1170090E-07 -0.6902798E+00
  0.7399999E+00  0.6370193E+06 -0.1532741E+01  0.6842288E-01 -0.2134745E+00  0.3626557E+06 -0.6964966E-01  0.1541879E+01 -0.3982305E-01  0.1335554E+07  0.1608848E+01  0.1857919E-07  0.7432945E+00
  0.7600000E+00  0.6649880E+06 -0.1527218E+01  0.8104102E-01 -0.2636926E+01  0.3476535E+06 -0.7588858E-01  0.1992724E+00  0.2323776E+00  0.1382938E+07  0.1614372E+01  0.3801210E-07  0.1695151E+01
  0.7800000E+00  0.6928040E+06 -0.1521136E+01  0.7039595E-01  0.1604068E-01  0.3328110E+06 -0.8252292E-01  0.3666245E+00  0.3048919E+01  0.1429389E+07  0.1620455E+01  0.1369365E-07  0.1404250E+01
  0.8000000E+00  0.7204116E+06 -0.1514487E+01  0.9036566E-01  0.4239164E+00  0.3181148E+06 -0.8958967E-01  0.3937781E+00  0.2879523E+01  0.1473958E+07  0.1627103E+01  0.7639406E-08 -0.1347995E+01
  0.8200000E+00  0.7479678E+06 -0.1507269E+01  0.1292149E+00  0.4450373E+00  0.3038895E+06 -0.9691034E-01  0.1161828E-01  0.1483342E+01  0.1515960E+07  0.1634313E+01  0.1120146E-07  0.1638402E+01
  0.8400000E+00  0.7750976E+06 -0.1499449E+01  0.1447812E+00 -0.3908693E+00  0.2901369E+06 -0.1045086E+00  0.8046401E+00  0.6278196E-01  0.1555447E+07  0.1642125E+01  0.1276660E-07 -0.8725553E+00
  0.8600000E+00  0.8018966E+06 -0.1491014E+01  0.2498746E-01 -0.3032680E+01  0.2766702E+06 -0.1125437E+00  0.1040604E+01  0.3020300E+01  0.1592741E+07  0.1650555E+01  0.2396354E-07 -0.1436800E+01
  0.8800001E+00  0.8280163E+06 -0.1481958E+01  0.1030717E+00  0.2911816E+01  0.2634826E+06 -0.1210393E+00  0.4036588E+00  0.2950173E+01  0.1627006E+07  0.1659606E+01  0.6990981E-08 -0.1612439E+01
  0.9000000E+00  0.8533664E+06 -0.1472280E+01  0.4135363E-02  0.4179439E+00  0.2505722E+06 -0.1300523E+00  0.9187238E+00  0.3044003E+01  0.1658739E+07  0.1669283E+01  0.1363415E-07 -0.3038950E+01
  0.9200000E+00  0.8776450E+06 -0.1461990E+01  0.6794385E-01 -0.8320531E+00  0.2379265E+06 -0.1396473E+00  0.9186600E+00  0.3155879E-02  0.1687014E+07  0.1679570E+01  0.5786027E-08 -0.2206249E+01
  0.9399999E+00  0.9008889E+06 -0.1451114E+01  0.2587278E-01  0.2449535E+01  0.2256940E+06 -0.1496161E+00  0.2331245E+01 -0.7180299E-02  0.1711777E+07  0.1690438E+01  0.3337330E-07 -0.1787006E+01
  0.9600000E+00  0.9228284E+06 -0.1439670E+01  0.6278548E-01 -0.2660520E+01  0.2141203E+06 -0.1595623E+00  0.1347599E+01  0.2745026E-01  0.1733089E+07  0.1701875E+01  0.3161905E-07  0.1990796E+01
  0.9800000E+00  0.9433969E+06 -0.1427701E+01  0.1448009E+00  0.2660658E+01  0.2028927E+06 -0.1700440E+00  0.8368967E+00  0.2248267E-01  0.1750845E+07  0.1713846E+01  0.1075062E-07  0.1657534E+01
  0.9999999E+00  0.9624622E+06 -0.1415285E+01  0.1070904E+00  0.3189922E+00  0.1920289E+06 -0.1810970E+00  0.4954843E+00 -0.2987840E+01  0.1764609E+07  0.1726264E+01  0.1262530E-07 -0.1479615E+01
  0.1020000E+01  0.9799098E+06 -0.1402567E+01  0.1032687E+00 -0.1877496E+01  0.1815086E+06 -0.1927428E+00  0.6472639E+00  0.3057167E+01  0.1773168E+07  0.1738962E+01  0.2551348E-07  0.2209164E+01
  0.1040000E+01  0.9955806E+06 -0.1389555E+01  0.5184038E-01 -0.2322888E+01  0.1713314E+06 -0.2050713E+00  0.4719582E+00 -0.4364679E-03  0.1777199E+07  0.1751957E+01  0.4583805E-07  0.1872166E+01
  0.1060000E+01  0.1009166E+07 -0.1376325E+01  0.1681227E+00  0.2975281E+01  0.1614860E+06 -0.2181910E+00  0.5631565E+00 -0.2926123E+00  0.1776055E+07  0.1765159E+01  0.2281801E-07  0.2254103E+01
  0.1080000E+01  0.1020805E+07 -0.1362957E+01  0.8642945E-01 -0.1258348E+01  0.1519837E+06 -0.2320825E+00  0.1686426E+00  0.7557554E+00  0.1770279E+07  0.1778490E+01  0.1416255E-07  0.1735946E+01
  0.1100000E+01  0.1030296E+07 -0.1349528E+01  0.2181105E-01 -0.1283938E+01  0.1431616E+06 -0.2450780E+00  0.5838266E+00  0.2965058E+01  0.1759785E+07  0.1791879E+01  0.9417408E-08 -0.1421908E+01
  0.1120000E+01  0.1037407E+07 -0.1336158E+01  0.1072745E+00  0.5567430E+00  0.1346808E+06 -0.2587451E+00  0.5592949E+00 -0.3017976E+01  0.1744433E+07  0.1805218E+01  0.8625936E-08 -0.1332364E+01
  0.1140000E+01  0.1042373E+07 -0.1322939E+01  0.2509136E-01 -0.1469751E+01  0.1265737E+06 -0.2730440E+00  0.3829236E+00  0.3160479E-01  0.1725040E+07  0.1818415E+01  0.1257407E-07 -0.2046865E+01
  0.1160000E+01  0.1045080E+07 -0.1310065E+01  0.1173179E+00 -0.1714770E+01  0.1188263E+06 -0.2879990E+00  0.8713828E+00 -0.2874148E+01  0.1700911E+07  0.1831254E+01  0.1279138E-07 -0.2427043E+01
  0.1180000E+01  0.1045575E+07 -0.1297663E+01  0.8111918E-01  0.1190801E+01  0.1114129E+06 -0.3037228E+00  0.2366338E+00 -0.3271543E+00  0.1672617E+07  0.1843614E+01  0.4317424E-07  0.1695151E+01
  0.1200000E+01  0.1043848E+07 -0.1285807E+01  0.3864540E-01 -0.2799754E+01  0.1043346E+06 -0.3202757E+00  0.1481529E-01  0.1222092E+01  0.1640370E+07  0.1855434E+01  0.4401916E-07 -0.1676781E+01
  0.1220000E+01  0.1039764E+07 -0.1274627E+01  0.8192287E-01  0.1369549E+00  0.9757730E+05 -0.3378417E+00  0.4765894E+00 -0.4291546E-01  0.1603828E+07  0.1866531E+01  0.4400699E-07 -0.1674150E+01
  0.1240000E+01  0.1033820E+07 -0.1264156E+01  0.6576923E-01 -0.1350410E+01  0.9113786E+05 -0.3564722E+00  0.2975686E+00 -0.3126568E+01  0.1564535E+07  0.1876941E+01  0.2156293E-07  0.1136126E+01
  0.1260000E+01  0.1025885E+07 -0.1254535E+01  0.8232363E-01 -0.6623803E+00  0.8512080E+05 -0.3740578E+00  0.1734356E+00 -0.2524531E+01  0.1521914E+07  0.1886435E+01  0.2882802E-07 -0.1321900E+01
  0.1280000E+01  0.1015954E+07 -0.1245840E+01  0.1319051E+00  0.5033765E+00  0.7944547E+05 -0.3918367E+00  0.4723391E+00 -0.1865744E+00  0.1476653E+07  0.1895007E+01  0.2384554E-07 -0.2515668E+01
  0.1300000E+01  0.1004531E+07 -0.1238181E+01  0.1221214E+00  0.2955726E+01  0.7407079E+05 -0.4102404E+00  0.1562790E+00 -0.7642736E-01  0.1429558E+07  0.1902585E+01  0.1848769E-07  0.1276927E+01
  0.1320000E+01  0.9916981E+06 -0.1231627E+01  0.1337271E+00 -0.2035388E+01  0.6901099E+05 -0.4291438E+00  0.5995306E+00 -0.2144271E-02  0.1380856E+07  0.1909055E+01  0.1653589E-07  0.1006227E+01
  0.1340000E+01  0.9774594E+06 -0.1226275E+01  0.6549228E-01  0.1489716E+01  0.6422791E+05 -0.4487943E+00  0.4970048E+00 -0.5462212E-01  0.1330253E+07  0.1914251E+01  0.2473736E-07  0.2913735E+01
  0.1360000E+01  0.9619975E+06 -0.1222087E+01  0.7195185E-01  0.1438129E+01  0.5970778E+05 -0.4694058E+00  0.1567701E+00 -0.6079602E+00  0.1279010E+07  0.1918336E+01  0.2520170E-07  0.2050971E+01
  0.1380000E+01  0.9455304E+06 -0.1219098E+01  0.8028274E-01  0.3505816E+00  0.5545425E+05 -0.4908361E+00  0.2729096E+00  0.2970495E+01  0.1227360E+07  0.1921290E+01  0.2120709E-07  0.1831752E+01
  0.1400000E+01  0.9278616E+06 -0.1217498E+01  0.7366236E-01 -0.2968173E+01  0.5144102E+05 -0.5137493E+00  0.2050165E+00 -0.3127488E+01  0.1174376E+07  0.1922648E+01  0.1420851E-07 -0.1979453E+01
  0.1420000E+01  0.9097389E+06 -0.1217085E+01  0.1038498E+00  0.1756406E+01  0.4768425E+05 -0.5371523E+00  0.2370051E+00 -0.2067755E+00  0.1122333E+07  0.1923044E+01  0.2106836E-07 -0.2228643E+00
  0.1440000E+01  0.8910232E+06 -0.1218080E+01  0.4777014E-01  0.2294354E+00  0.4414341E+05 -0.5620366E+00  0.9197421E-01 -0.2793201E+01  0.1070050E+07  0.1921737E+01  0.6696215E-08  0.2818824E+00
  0.1460000E+01  0.8719254E+06 -0.1220345E+01  0.2135706E+00  0.1545259E+01  0.4084538E+05 -0.5845491E+00  0.3362429E+00  0.3119995E+01  0.1018404E+07  0.1919222E+01  0.1581536E-07  0.7847474E+00
  0.1480000E+01  0.8523382E+06 -0.1223980E+01  0.8106866E-01 -0.2929005E+00  0.3775623E+05 -0.6084480E+00  0.3216095E+00 -0.3726531E+00  0.9671659E+06  0.1915249E+01  0.2422488E-07 -0.1600235E+01
  0.1500000E+01  0.8326223E+06 -0.1228858E+01  0.4923251E-01 -0.1699053E+01  0.3486595E+05 -0.6332051E+00  0.1647951E+00  0.2138482E+00  0.9171024E+06  0.1910226E+01  0.1585654E-07  0.1515705E+01
  0.1520000E+01  0.8127928E+06 -0.1235035E+01  0.1022056E-01  0.2677192E+01  0.3218418E+05 -0.6580770E+00  0.6791253E-01  0.3073827E+01  0.8681924E+06  0.1903895E+01  0.1311327E-07  0.2999068E+01
  0.1540000E+01  0.7929804E+06 -0.1242492E+01  0.5753837E-01 -0.1996039E+01  0.2967728E+05 -0.6836108E+00  0.1530579E+00 -0.5311377E+00  0.8203462E+06  0.1896268E+01  0.3786559E-07 -0.2194619E+01
  0.1560000E+01  0.7732170E+06 -0.1251239E+01  0.3407080E-01  0.4838726E-01  0.2733505E+05 -0.7108953E+00  0.4389907E-01  0.6818931E+00  0.7737071E+06  0.1887197E+01  0.2191115E-07  0.2201546E+01
  0.1580000E+01  0.7535852E+06 -0.1261150E+01  0.1523209E-01  0.1001754E-02  0.2516270E+05 -0.7385988E+00  0.1357792E+00 -0.2212650E-01  0.7287517E+06  0.1877283E+01  0.7511487E-07 -0.1698227E+01
  0.1600000E+01  0.7340603E+06 -0.1272348E+01  0.7709914E-01  0.2069234E+01  0.2314306E+05 -0.7679894E+00  0.9624873E-01  0.2775052E+01  0.6849161E+06  0.1865925E+01  0.3342721E-07 -0.1896953E+01
  0.1620000E+01  0.7146898E+06 -0.1284815E+01  0.6577381E-01  0.1447823E+01  0.2127515E+05 -0.7991710E+00  0.1160156E+00 -0.1908277E+01  0.6423835E+06  0.1853019E+01  0.4995453E-07 -0.1725218E+01
  0.1640000E+01  0.6957189E+06 -0.1298292E+01  0.2470611E-01  0.3059977E+01  0.1954207E+05 -0.8300316E+00  0.1407216E+00  0.1934827E+00  0.6017441E+06  0.1839666E+01  0.3204023E-07  0.6565818E+00
  0.1660000E+01  0.6770636E+06 -0.1312964E+01  0.2208407E-01 -0.1835215E+01  0.1794104E+05 -0.8633443E+00  0.5520074E-01  0.5052503E+00  0.5625106E+06  0.1824704E+01  0.3211375E-07 -0.1276561E+01
  0.1680000E+01  0.6587612E+06 -0.1328729E+01  0.4572528E-01 -0.2543224E+01  0.1644644E+05 -0.8956723E+00  0.1631318E+00 -0.2721973E+01  0.5247759E+06  0.1808641E+01  0.2399963E-07  0.2743070E+01
  0.1700000E+01  0.6407783E+06 -0.1345590E+01  0.3513594E-01 -0.1683731E+01  0.1507733E+05 -0.9291731E+00  0.1296031E+00  0.2578198E+00  0.4885610E+06  0.1791663E+01  0.6556571E-08 -0.1677532E+01
  0.1720000E+01  0.6231734E+06 -0.1363535E+01  0.3452792E-01 -0.1356369E+01  0.1382125E+05 -0.9651140E+00  0.3064383E-01 -0.1397768E+00  0.4537832E+06  0.1773466E+01  0.1680418E-07 -0.1501463E+01
  0.1740000E+01  0.6060235E+06 -0.1382417E+01  0.8122832E-01 -0.1106991E+01  0.1266388E+05 -0.1000901E+01  0.1941928E-01 -0.1980544E+01  0.4206521E+06  0.1754754E+01  0.7093738E-07  0.1504283E+01
  0.1760000E+01  0.5892849E+06 -0.1402302E+01  0.1055801E-01 -0.3076511E+01  0.1159933E+05 -0.1037350E+01  0.6270380E-01 -0.1020601E+01  0.3889793E+06  0.1735168E+01  0.3556180E-07  0.1669060E+01
  0.1780000E+01  0.5729663E+06 -0.1423194E+01  0.5070542E-01  0.1707563E+01  0.1063467E+05 -0.1078507E+01  0.2022962E-01  0.2016227E+01  0.3586731E+06  0.1714318E+01  0.1013884E-07  0.9732396E+00
  0.1800000E+01  0.5570617E+06 -0.1445024E+01  0.4736945E-01  0.2324785E+01  0.9766188E+04 -0.1122200E+01  0.8605169E-01  0.2839116E+01  0.3297928E+06  0.1692708E+01  0.2433749E-07  0.1671417E+01
  0.1820000E+01  0.5415654E+06 -0.1467750E+01  0.7028342E-01  0.1745475E+01  0.8975569E+04 -0.1165522E+01  0.6277540E-01  0.2722331E+01  0.3022851E+06  0.1670607E+01  0.2594809E-07 -0.1820127E+01
  0.1840000E+01  0.5264951E+06 -0.1491368E+01  0.3274545E-01 -0.1573126E+01  0.8257703E+04 -0.1210495E+01  0.4459185E-01 -0.8302578E-01  0.2760704E+06  0.1647758E+01  0.4487837E-07  0.1482485E+01
  0.1860000E+01  0.5118323E+06 -0.1515922E+01  0.6369852E-01  0.1586967E+01  0.7629886E+04 -0.1260832E+01  0.5013348E-01  0.7537760E-01  0.2510988E+06  0.1623743E+01  0.1603830E-07 -0.2448713E+01
  0.1880000E+01  0.4975938E+06 -0.1541283E+01  0.8514641E-01  0.1510457E+01  0.7064225E+04 -0.1310580E+01  0.4019941E-01  0.3059086E+01  0.2273779E+06  0.1599416E+01  0.2981685E-08  0.2466851E+01
  0.1900000E+01  0.4837696E+06 -0.1567467E+01  0.7456981E-01 -0.1674008E+01  0.6543900E+04 -0.1358054E+01  0.8788628E-02  0.1737648E+01  0.2048442E+06  0.1574615E+01  0.3790207E-08 -0.1756144E+01
  0.1920000E+01  0.4703499E+06 -0.1594484E+01  0.6845757E-01  0.2099882E+01  0.6069753E+04 -0.1405139E+01  0.4270058E-01 -0.2953369E+01  0.1834557E+06  0.1549186E+01  0.2739102E-07 -0.1881795E+01
  0.1940000E+01  0.4573232E+06 -0.1622294E+01  0.8777349E-02 -0.6541057E+00  0.5677060E+04 -0.1455946E+01  0.4092337E-01  0.5861864E+00  0.1631634E+06  0.1523231E+01  0.2887476E-07 -0.1554669E+01
  0.1960000E+01  0.4446899E+06 -0.1650877E+01  0.1316596E-01  0.1935806E+01  0.5321555E+04 -0.1504167E+01  0.2228493E-01  0.2459906E+00  0.1439226E+06  0.1496919E+01  0.6519255E-08  0.3141593E+01
  0.1980000E+01  0.4324331E+06 -0.1680187E+01  0.1937825E-01 -0.1894539E+01  0.5044322E+04 -0.1554689E+01  0.1717200E-01  0.5971533E+00  0.1256809E+06  0.1471047E+01  0.1396984E-07  0.1570797E+01
  0.2000000E+01  0.4205408E+06 -0.1710273E+01  0.3740441E-01  0.1057140E+01  0.4773423E+04 -0.1599604E+01  0.1091487E-01 -0.7708825E+00  0.1084072E+06  0.1444894E+01  0.5036898E-08 -0.5880024E+00
  0.2020000E+01  0.4090094E+06 -0.1741120E+01  0.6070146E-01  0.1486486E+01  0.4663101E+04 -0.1650127E+01  0.2503190E-01 -0.1195197E+01  0.9206797E+05  0.1417972E+01  0.1041250E-07  0.2961739E+01
  0.2040000E+01  0.3978160E+06 -0.1772686E+01  0.1847647E-01 -0.1042841E+01  0.4678856E+04 -0.1699241E+01  0.5011279E-02 -0.6208814E+00  0.7659799E+05  0.1391584E+01  0.5374304E-07  0.1414195E+01
  0.2060000E+01  0.3869359E+06 -0.1804947E+01  0.3169329E-01 -0.1653218E+01  0.4900660E+04 -0.1746956E+01  0.8042841E-02  0.1350668E+01  0.6192805E+05  0.1368153E+01  0.1400859E-07  0.1196463E+01
  0.2080000E+01  0.3764175E+06 -0.1837951E+01  0.1800333E-01  0.2547948E+01  0.5248077E+04 -0.1783117E+01  0.1948634E-02 -0.4825258E+00  0.4806925E+05  0.1346749E+01  0.1266736E-07  0.1272298E+01
  0.2100000E+01  0.3662504E+06 -0.1871662E+01  0.3180469E-01 -0.1618311E+01  0.5857040E+04 -0.1809102E+01  0.2120459E-02  0.2888270E+01  0.3506705E+05  0.1328311E+01  0.8786080E-08  0.5585994E+00
  0.2120000E+01  0.3564060E+06 -0.1906126E+01  0.5123578E-01  0.1679414E+01  0.6914831E+04 -0.1825151E+01  0.2904683E-02  0.1079652E+01  0.2289349E+05  0.1318266E+01  0.3951267E-08 -0.2356194E+01
  0.2140000E+01  0.3468161E+06 -0.1940971E+01  0.3444656E-01 -0.1702294E+01  0.9768087E+04 -0.1831635E+01  0.4441314E-02 -0.2796821E+01  0.1119546E+05  0.1392552E+01  0.3317979E-07 -0.1486490E+01
  0.2160000E+01  0.3375471E+06 -0.1976515E+01  0.1084355E-01 -0.1114700E+01  0.2014323E+05 -0.1834953E+01  0.1550629E-01  0.1454665E+01  0.2227480E+04  0.2777927E+01  0.2915501E-07 -0.1107149E+01
  0.2180000E+01  0.3285889E+06 -0.2012801E+01  0.2407949E-01 -0.9663871E-02  0.5250927E+05  0.1472544E+01  0.5669350E-01  0.1544569E+01  0.1058884E+05 -0.2212259E+01  0.1941451E-07 -0.1176928E+01
  0.2200000E+01  0.3199260E+06 -0.2049810E+01  0.1375178E-01  0.8258163E+00  0.8917838E+04  0.1443832E+01  0.1997123E-01 -0.1332280E+01  0.2009886E+05 -0.2145321E+01  0.5268352E-08  0.2356194E+01
  0.2220000E+01  0.3115313E+06 -0.2087422E+01  0.1122350E-01  0.1559920E+01  0.3949663E+04  0.1514629E+01  0.8386596E-02  0.1624085E+01  0.2915987E+05 -0.2148092E+01  0.4317612E-07  0.1286571E+01
  0.2240000E+01  0.3033983E+06 -0.2125711E+01  0.1837108E-01 -0.1752024E+01  0.2368194E+04  0.1614505E+01  0.6479057E-02 -0.1220627E+01  0.3762686E+05 -0.2165459E+01  0.3357933E-08  0.9827933E+00
  0.2260000E+01  0.2955143E+06 -0.2164463E+01  0.1400371E-01 -0.1463809E+01  0.1555261E+04  0.1748981E+01  0.1057883E-01 -0.6258552E+00  0.4555414E+05 -0.2189684E+01  0.3886599E-07 -0.1353427E+01
  0.2280000E+01  0.2878210E+06 -0.2203794E+01  0.3522969E-01  0.1397548E+01  0.1097166E+04  0.1922521E+01  0.6247190E-02 -0.9666218E+00  0.5319439E+05 -0.2219947E+01  0.1083101E-07 -0.2015215E+01
  0.2300000E+01  0.2803782E+06 -0.2243806E+01  0.1462797E-01  0.3032893E+01  0.7691218E+03  0.2180692E+01  0.3189036E-02 -0.2145777E+01  0.6021403E+05 -0.2252149E+01  0.1434934E-07  0.1505847E+01
  0.2320000E+01  0.2732234E+06 -0.2284585E+01  0.1134919E-01 -0.1717875E+01  0.6623442E+03  0.2329273E+01  0.6859219E-02 -0.2973155E+01  0.6639274E+05 -0.2282760E+01  0.1127307E-07 -0.2187445E+01
  0.2340000E+01  0.2662660E+06 -0.2326015E+01  0.2280946E-01  0.2115834E+01  0.6298481E+03  0.2386632E+01  0.5883454E-02 -0.8882123E+00  0.7223774E+05 -0.2313624E+01  0.7253573E-08 -0.1175387E+01
  0.2360000E+01  0.2594967E+06 -0.2368095E+01  0.1297891E-01 -0.1468335E+01  0.6186273E+03  0.2392272E+01  0.6807461E-02  0.8502663E+00  0.7772266E+05 -0.2346587E+01  0.1784765E-07 -0.1306832E+01
  0.2380000E+01  0.2529043E+06 -0.2410774E+01  0.2294577E-01 -0.2172333E+01  0.6084657E+03  0.2397174E+01  0.8799965E-02 -0.1556547E+00  0.8292170E+05 -0.2381753E+01  0.1662963E-07  0.2099059E+01
  0.2400000E+01  0.2466647E+06 -0.2453696E+01  0.6996221E-02 -0.5368661E+00  0.5750618E+03  0.2430506E+01  0.5013087E-02  0.1777805E+01  0.8760561E+05 -0.2418633E+01  0.9269467E-08  0.4411794E+00
  0.2420000E+01  0.2406315E+06 -0.2496972E+01  0.1055905E-01 -0.1268526E+01  0.5403389E+03  0.2461646E+01  0.9813161E-02  0.2170486E+01  0.9178718E+05 -0.2455348E+01  0.2052908E-07 -0.3079174E+01
  0.2440000E+01  0.2348389E+06 -0.2540549E+01  0.1818993E-01 -0.3294103E+00  0.4919485E+03  0.2508889E+01  0.7193677E-02  0.2381202E+01  0.9536180E+05 -0.2494690E+01  0.1530496E-07 -0.2150360E+01
  0.2460000E+01  0.2291410E+06 -0.2584866E+01  0.1081687E-01 -0.5090852E+00  0.4656856E+03  0.2539430E+01  0.1186299E-01 -0.2017040E+01  0.9922875E+05 -0.2531717E+01  0.2601459E-07 -0.2368852E+01
  0.2480000E+01  0.2236656E+06 -0.2629649E+01  0.3798233E-02 -0.3595935E+00  0.4403784E+03  0.2586822E+01  0.2166282E-01 -0.1437484E+01  0.1028603E+06 -0.2567060E+01  0.1893825E-07 -0.1768795E+01
  0.2500000E+01  0.2184129E+06 -0.2674783E+01  0.4339500E-02 -0.2699077E+01  0.4108580E+03  0.2622177E+01  0.1320986E-01 -0.1516161E+01  0.1058950E+06 -0.2603443E+01  0.1164971E-07 -0.2855400E+01
  0.2520000E+01  0.2133604E+06 -0.2719991E+01  0.7266729E-02  0.3123983E-01  0.3743218E+03  0.2672529E+01  0.4994188E-02  0.2064282E+01  0.1084460E+06 -0.2642012E+01  0.5854427E-08  0.3028851E+00
  0.2540000E+01  0.2084945E+06 -0.2765069E+01  0.6627901E-02 -0.4399650E+00  0.3344340E+03  0.2741366E+01  0.7512915E-02  0.1787197E+01  0.1109418E+06 -0.2683511E+01  0.3712546E-08  0.7188292E+00
  0.2560000E+01  0.2037721E+06 -0.2809837E+01  0.1833355E-01 -0.1011998E+01  0.2954323E+03  0.2828488E+01  0.1349119E-01 -0.1853414E+01  0.1135042E+06 -0.2726875E+01  0.7957226E-08 -0.1929567E+01
  0.2580000E+01  0.1992075E+06 -0.2854378E+01  0.8897118E-02 -0.2197575E+01  0.2615960E+03  0.2885060E+01  0.1876614E-01 -0.1288835E+01  0.1160082E+06 -0.2769190E+01  0.4393040E-08  0.2582994E+01
  0.2600000E+01  0.1948398E+06 -0.2898399E+01  0.1672097E-01  0.5826875E+00  0.2296792E+03  0.2930877E+01  0.3719236E-02  0.3008670E+01  0.1182353E+06 -0.2810519E+01  0.6124818E-08  0.1418147E+01
  0.2620000E+01  0.1908081E+06 -0.2941993E+01  0.1813890E-01  0.1911302E+01  0.2030421E+03  0.2984485E+01  0.3928985E-02  0.6489413E+00  0.1198627E+06 -0.2845594E+01  0.4293185E-08 -0.1352127E+01
  0.2640000E+01  0.1869355E+06 -0.2983554E+01  0.3814583E-02 -0.1789591E+00  0.1765857E+03  0.3043749E+01  0.2696797E-02 -0.2360992E+01  0.1217510E+06 -0.2880388E+01  0.1832719E-07  0.2045807E+01
  0.2660000E+01  0.1831312E+06 -0.3020783E+01  0.1908975E-01 -0.1826147E+01  0.1497497E+03  0.3112149E+01  0.2155646E-01  0.1505708E+01  0.1241890E+06 -0.2915060E+01  0.1725462E-07 -0.1624798E+01
  0.2680000E+01  0.1795551E+06 -0.3049985E+01  0.6703058E-02 -0.1534366E+01  0.1227505E+03  0.3118879E+01  0.8820353E-02  0.1542803E+01  0.1270912E+06 -0.2944752E+01  0.3636931E-08  0.6947383E+00
  0.2700000E+01  0.1766438E+06 -0.3061067E+01  0.1230367E-01  0.9965530E+00  0.9911958E+02  0.3123577E+01  0.1979961E-01  0.2905651E+01  0.1307808E+06 -0.2953242E+01  0.8896450E-08 -0.7483780E+00
  0.2720000E+01  0.1731157E+06 -0.3008073E+01  0.2657834E-02 -0.2672594E+00  0.7681832E+02  0.3131044E+01  0.7500408E-02 -0.1652757E+01  0.1407395E+06 -0.2904615E+01  0.1446552E-07 -0.1635223E+01
  0.2740000E+01  0.1212453E+06 -0.2364756E+01  0.9394650E-02 -0.2066773E+01  0.5642287E+02  0.3139307E+01  0.2635022E-02  0.2412274E+01  0.1720085E+06 -0.2289372E+01  0.4586232E-08  0.1989021E+01
  0.2760000E+01  0.1440218E+06  0.2583149E+01  0.3650920E-02  0.6198856E+00  0.3767688E+02  0.3139375E+01  0.2138721E-01 -0.1757738E+00  0.5703069E+05  0.2785742E+01  0.1862973E-07  0.1552049E+01
  0.2780000E+01  0.1536241E+06  0.2718887E+01  0.1494143E-01 -0.1620347E+01  0.2046491E+02  0.3077173E+01  0.3221324E-02  0.5535676E+00  0.8676814E+05  0.2860066E+01  0.2283165E-07  0.1776192E+01
  0.2800000E+01  0.1528480E+06  0.2722666E+01  0.3343310E-02  0.2551060E+01  0.6247387E+01  0.2482425E+01  0.3225235E-01 -0.2965012E+01  0.9558629E+05  0.2850077E+01  0.2425465E-07 -0.1513168E+01
  0.2820000E+01  0.1509513E+06  0.2697263E+01  0.1522670E-01 -0.1632465E+01  0.1122875E+02  0.7059230E+00  0.9223788E-02 -0.2222061E+01  0.9849215E+05  0.2812309E+01  0.5206249E-08  0.1798534E+00
  0.2840000E+01  0.1483126E+06  0.2658626E+01  0.1347721E-01  0.2056724E+01  0.2778849E+02  0.5124675E+00  0.1311527E-01 -0.2920300E+01  0.1013236E+06  0.2772033E+01  0.2533471E-07 -0.1869296E+01
  0.2860000E+01  0.1452530E+06  0.2612646E+01  0.6552490E-02  0.2782277E+01  0.4876863E+02  0.4934196E+00  0.3137790E-02  0.3717088E+00  0.1036067E+06  0.2729423E+01  0.1877141E-08  0.1446440E+01
  0.2880000E+01  0.1423701E+06  0.2564093E+01  0.1682304E-01  0.3056229E+01  0.7010803E+02  0.5216975E+00  0.6701173E-02 -0.2031168E+01  0.1046868E+06  0.2681587E+01  0.1973438E-07 -0.1234121E+01
  0.2900000E+01  0.1396455E+06  0.2513942E+01  0.8021219E-02  0.1009936E+00  0.9066508E+02  0.5647196E+00  0.1915444E-01 -0.1685955E+00  0.1050261E+06  0.2628892E+01  0.6053597E-08 -0.1176005E+01
  0.2920000E+01  0.1370462E+06  0.2463075E+01  0.9967056E-02 -0.2499852E+01  0.1103931E+03  0.5996242E+00  0.1675638E-01  0.3755037E+00  0.1048667E+06  0.2572062E+01  0.1164153E-07 -0.2214297E+01
  0.2940000E+01  0.1344711E+06  0.2411450E+01  0.8471696E-02 -0.3026062E+01  0.1277826E+03  0.6263284E+00  0.2819330E-02 -0.3119408E+01  0.1043237E+06  0.2511099E+01  0.1234277E-07  0.1132460E+01
  0.2960000E+01  0.1319472E+06  0.2359134E+01  0.2215028E-02 -0.1838332E+01  0.1450207E+03  0.6409194E+00  0.1021640E-01 -0.2744117E+01  0.1037939E+06  0.2449035E+01  0.7363671E-08 -0.2456976E+01
  0.2980000E+01  0.1294533E+06  0.2306349E+01  0.3379142E-02 -0.5726602E+00  0.1593843E+03  0.6851526E+00  0.6071288E-02 -0.1274483E+01  0.1033145E+06  0.2385750E+01  0.3213422E-07 -0.1399691E+01
  0.3000000E+01  0.1269570E+06  0.2252661E+01  0.8033143E-03  0.1252402E+01  0.1737245E+03  0.7298820E+00  0.2015577E-01  0.3099176E+01  0.1029606E+06  0.2322562E+01  0.2058692E-07 -0.1668320E+01
  0.3020000E+01  0.1244578E+06  0.2196961E+01  0.2492377E-02  0.2772029E+01  0.1997331E+03  0.7623152E+00  0.9072243E-03  0.3083054E+01  0.1027888E+06  0.2263484E+01  0.3177072E-07  0.1489177E+01