 VARIABLES="Time (s)"
"AddedMass    1" "IRF    1"
"AddedMass    2" "IRF    2"
"AddedMass    3" "IRF    3"
"AddedMass    4" "IRF    4"
"AddedMass    5" "IRF    5"
"AddedMass    6" "IRF    6"
Zone t="DoF    1",I=   100,F=POINT
  0.0000000E+00  0.3890295E+06  0.5434525E+06  0.1592440E-03  0.5056959E-03 -0.5585015E-02  0.8324572E-02 -0.1859053E-03  0.8051606E-03 -0.1226908E+07 -0.2527613E+06 -0.9435271E-09  0.1587152E-08
  0.1000000E+00  0.3890295E+06  0.5304307E+06  0.1592440E-03  0.4873803E-03 -0.5585015E-02  0.8242670E-02 -0.1859053E-03  0.8031618E-03 -0.1226908E+07 -0.2579255E+06 -0.9435271E-09  0.1536491E-08
  0.2000000E+00  0.3890295E+06  0.4926648E+06  0.1592440E-03  0.4345959E-03 -0.5585015E-02  0.7994724E-02 -0.1859053E-03  0.7971670E-03 -0.1226908E+07 -0.2720276E+06 -0.9435271E-09  0.1387271E-08
  0.3000000E+00  0.3890295E+06  0.4338337E+06  0.1592440E-03  0.3534309E-03 -0.5585015E-02  0.7574882E-02 -0.1859053E-03  0.7870172E-03 -0.1226908E+07 -0.2911978E+06 -0.9435271E-09  0.1147952E-08
  0.4000000E+00  0.3890295E+06  0.3593845E+06  0.1592440E-03  0.2527896E-03 -0.5585015E-02  0.6976127E-02 -0.1859053E-03  0.7719902E-03 -0.1226908E+07 -0.3099084E+06 -0.9435271E-09  0.8330500E-09
  0.5000000E+00  0.3890295E+06  0.2756684E+06  0.1592440E-03  0.1428341E-03 -0.5585015E-02  0.6193515E-02 -0.1859053E-03  0.7503608E-03 -0.1226908E+07 -0.3221302E+06 -0.9435271E-09  0.4632275E-09
  0.6000000E+00  0.3890295E+06  0.1889991E+06  0.1592440E-03  0.3333185E-04 -0.5585015E-02  0.5227483E-02 -0.1859053E-03  0.7191900E-03 -0.1226908E+07 -0.3225526E+06 -0.9435271E-09  0.6462437E-10
  0.7000000E+00  0.3890295E+06  0.1048369E+06  0.1592440E-03 -0.6773516E-04 -0.5585015E-02  0.4086297E-02 -0.1859053E-03  0.6745409E-03 -0.1226908E+07 -0.3075978E+06 -0.9435271E-09 -0.3329814E-09
  0.8000000E+00  0.3890295E+06  0.2723823E+05  0.1592440E-03 -0.1550200E-03 -0.5585015E-02  0.2787043E-02 -0.1859053E-03  0.6121895E-03 -0.1226908E+07 -0.2760186E+06 -0.9435271E-09 -0.6991909E-09
  0.9000000E+00  0.3890295E+06 -0.4134998E+05  0.1592440E-03 -0.2259928E-03 -0.5585015E-02  0.1355189E-02 -0.1859053E-03  0.5286945E-03 -0.1226908E+07 -0.2289788E+06 -0.9435271E-09 -0.1006803E-08
  0.1000000E+01  0.3890295E+06 -0.9996216E+05  0.1592440E-03 -0.2805010E-03 -0.5585015E-02 -0.1772439E-03 -0.1859053E-03  0.4225523E-03 -0.1226908E+07 -0.1696485E+06 -0.9435271E-09 -0.1235664E-08
  0.1100000E+01  0.3890295E+06 -0.1487396E+06  0.1592440E-03 -0.3199031E-03 -0.5585015E-02 -0.1774144E-02 -0.1859053E-03  0.2950903E-03 -0.1226908E+07 -0.1024519E+06 -0.9435271E-09 -0.1375621E-08
  0.1200000E+01  0.3890295E+06 -0.1884422E+06  0.1592440E-03 -0.3460529E-03 -0.5585015E-02 -0.3397853E-02 -0.1859053E-03  0.1507697E-03 -0.1226908E+07 -0.3217899E+05 -0.9435271E-09 -0.1427750E-08
  0.1300000E+01  0.3890295E+06 -0.2199863E+06  0.1592440E-03 -0.3604286E-03 -0.5585015E-02 -0.5011237E-02 -0.1859053E-03 -0.3250620E-05 -0.1226908E+07  0.3682300E+05 -0.9435271E-09 -0.1403400E-08
  0.1400000E+01  0.3890295E+06 -0.2441180E+06  0.1592440E-03 -0.3636247E-03 -0.5585015E-02 -0.6579074E-02 -0.1859053E-03 -0.1582423E-03 -0.1226908E+07  0.1012050E+06 -0.9435271E-09 -0.1321127E-08
  0.1500000E+01  0.3890295E+06 -0.2612785E+06  0.1592440E-03 -0.3552992E-03 -0.5585015E-02 -0.8068737E-02 -0.1859053E-03 -0.3054658E-03 -0.1226908E+07  0.1588383E+06 -0.9435271E-09 -0.1202215E-08
  0.1600000E+01  0.3890295E+06 -0.2716483E+06  0.1592440E-03 -0.3345395E-03 -0.5585015E-02 -0.9450626E-02 -0.1859053E-03 -0.4377502E-03 -0.1226908E+07  0.2087140E+06 -0.9435271E-09 -0.1065779E-08
  0.1700000E+01  0.3890295E+06 -0.2753168E+06  0.1592440E-03 -0.3004891E-03 -0.5585015E-02 -0.1069860E-01 -0.1859053E-03 -0.5506802E-03 -0.1226908E+07  0.2506180E+06 -0.9435271E-09 -0.9247222E-09
  0.1800000E+01  0.3890295E+06 -0.2724868E+06  0.1592440E-03 -0.2530224E-03 -0.5585015E-02 -0.1179061E-01 -0.1859053E-03 -0.6430637E-03 -0.1226908E+07  0.2847193E+06 -0.9435271E-09 -0.7834973E-09
  0.1900000E+01  0.3890295E+06 -0.2636322E+06  0.1592440E-03 -0.1932552E-03 -0.5585015E-02 -0.1270984E-01 -0.1859053E-03 -0.7165888E-03 -0.1226908E+07  0.3112158E+06 -0.9435271E-09 -0.6382336E-09
  0.2000000E+01  0.3890295E+06 -0.2495522E+06  0.1592440E-03 -0.1237514E-03 -0.5585015E-02 -0.1344570E-01 -0.1859053E-03 -0.7747805E-03 -0.1226908E+07  0.3301295E+06 -0.9435271E-09 -0.4791262E-09
  0.2100000E+01  0.3890295E+06 -0.2313139E+06  0.1592440E-03 -0.4837176E-04 -0.5585015E-02 -0.1399442E-01 -0.1859053E-03 -0.8216013E-03 -0.1226908E+07  0.3412899E+06 -0.9435271E-09 -0.2944001E-09
  0.2200000E+01  0.3890295E+06 -0.2101032E+06  0.1592440E-03  0.2817388E-04 -0.5585015E-02 -0.1435913E-01 -0.1859053E-03 -0.8600960E-03 -0.1226908E+07  0.3444782E+06 -0.9435271E-09 -0.7476542E-10
  0.2300000E+01  0.3890295E+06 -0.1870453E+06  0.1592440E-03  0.1009447E-03 -0.5585015E-02 -0.1454839E-01 -0.1859053E-03 -0.8914903E-03 -0.1226908E+07  0.3396362E+06 -0.9435271E-09  0.1828315E-09
  0.2400000E+01  0.3890295E+06 -0.1630547E+06  0.1592440E-03  0.1653962E-03 -0.5585015E-02 -0.1457428E-01 -0.1859053E-03 -0.9149484E-03 -0.1226908E+07  0.3270702E+06 -0.9435271E-09  0.4731076E-09
  0.2500000E+01  0.3890295E+06 -0.1387594E+06  0.1592440E-03  0.2178771E-03 -0.5585015E-02 -0.1444973E-01 -0.1859053E-03 -0.9280206E-03 -0.1226908E+07  0.3075482E+06 -0.9435271E-09  0.7824883E-09
  0.2600000E+01  0.3890295E+06 -0.1145149E+06  0.1592440E-03  0.2559143E-03 -0.5585015E-02 -0.1418606E-01 -0.1859053E-03 -0.9275782E-03 -0.1226908E+07  0.2822694E+06 -0.9435271E-09  0.1091186E-08
  0.2700000E+01  0.3890295E+06 -0.9049773E+05  0.1592440E-03  0.2782719E-03 -0.5585015E-02 -0.1379159E-01 -0.1859053E-03 -0.9108944E-03 -0.1226908E+07  0.2527096E+06 -0.9435271E-09  0.1376687E-08
  0.2800000E+01  0.3890295E+06 -0.6683356E+05  0.1592440E-03  0.2848383E-03 -0.5585015E-02 -0.1327161E-01 -0.1859053E-03 -0.8765219E-03 -0.1226908E+07  0.2203973E+06 -0.9435271E-09  0.1617692E-08
  0.2900000E+01  0.3890295E+06 -0.4371396E+05  0.1592440E-03  0.2764295E-03 -0.5585015E-02 -0.1262987E-01 -0.1859053E-03 -0.8246975E-03 -0.1226908E+07  0.1866932E+06 -0.9435271E-09  0.1797512E-08
  0.3000000E+01  0.3890295E+06 -0.2146023E+05  0.1592440E-03  0.2545866E-03 -0.5585015E-02 -0.1187121E-01 -0.1859053E-03 -0.7571877E-03 -0.1226908E+07  0.1526395E+06 -0.9435271E-09  0.1906147E-08
  0.3100000E+01  0.3890295E+06 -0.5153770E+03  0.1592440E-03  0.2214288E-03 -0.5585015E-02 -0.1100432E-01 -0.1859053E-03 -0.6766930E-03 -0.1226908E+07  0.1189159E+06 -0.9435271E-09  0.1940708E-08
  0.3200000E+01  0.3890295E+06  0.1862713E+05  0.1592440E-03  0.1795621E-03 -0.5585015E-02 -0.1004404E-01 -0.1859053E-03 -0.5860568E-03 -0.1226908E+07  0.8590488E+05 -0.9435271E-09  0.1904302E-08
  0.3300000E+01  0.3890295E+06  0.3552974E+05  0.1592440E-03  0.1320037E-03 -0.5585015E-02 -0.9011730E-02 -0.1859053E-03 -0.4875947E-03 -0.1226908E+07  0.5382917E+05 -0.9435271E-09  0.1803878E-08
  0.3400000E+01  0.3890295E+06  0.4991029E+05  0.1592440E-03  0.8207087E-04 -0.5585015E-02 -0.7933845E-02 -0.1859053E-03 -0.3827807E-03 -0.1226908E+07  0.2290467E+05 -0.9435271E-09  0.1647824E-08
  0.3500000E+01  0.3890295E+06  0.6169922E+05  0.1592440E-03  0.3317838E-04 -0.5585015E-02 -0.6838555E-02 -0.1859053E-03 -0.2723943E-03 -0.1226908E+07 -0.6543764E+04 -0.9435271E-09  0.1443943E-08
  0.3600000E+01  0.3890295E+06  0.7103605E+05  0.1592440E-03 -0.1146816E-04 -0.5585015E-02 -0.5751157E-02 -0.1859053E-03 -0.1570336E-03 -0.1226908E+07 -0.3404721E+05 -0.9435271E-09  0.1198407E-08
  0.3700000E+01  0.3890295E+06  0.7820589E+05  0.1592440E-03 -0.4924444E-04 -0.5585015E-02 -0.4689583E-02 -0.1859053E-03 -0.3777470E-04 -0.1226908E+07 -0.5903968E+05 -0.9435271E-09  0.9157943E-09
  0.3800000E+01  0.3890295E+06  0.8354168E+05  0.1592440E-03 -0.7846569E-04 -0.5585015E-02 -0.3661043E-02 -0.1859053E-03  0.8332031E-04 -0.1226908E+07 -0.8096882E+05 -0.9435271E-09  0.6000795E-09
  0.3900000E+01  0.3890295E+06  0.8732531E+05  0.1592440E-03 -0.9863120E-04 -0.5585015E-02 -0.2660851E-02 -0.1859053E-03  0.2030817E-03 -0.1226908E+07 -0.9942273E+05 -0.9435271E-09  0.2561430E-09
  0.4000000E+01  0.3890295E+06  0.8972090E+05  0.1592440E-03 -0.1104612E-03 -0.5585015E-02 -0.1673844E-02 -0.1859053E-03  0.3175924E-03 -0.1226908E+07 -0.1142276E+06 -0.9435271E-09 -0.1087194E-09
  0.4100000E+01  0.3890295E+06  0.9076123E+05  0.1592440E-03 -0.1156854E-03 -0.5585015E-02 -0.6780394E-03 -0.1859053E-03  0.4229492E-03 -0.1226908E+07 -0.1254793E+06 -0.9435271E-09 -0.4837914E-09
  0.4200000E+01  0.3890295E+06  0.9038814E+05  0.1592440E-03 -0.1166025E-03 -0.5585015E-02  0.3502825E-03 -0.1859053E-03  0.5161722E-03 -0.1226908E+07 -0.1334995E+06 -0.9435271E-09 -0.8547413E-09
  0.4300000E+01  0.3890295E+06  0.8852761E+05  0.1592440E-03 -0.1154991E-03 -0.5585015E-02  0.1431281E-02 -0.1859053E-03  0.5959403E-03 -0.1226908E+07 -0.1387313E+06 -0.9435271E-09 -0.1204325E-08
  0.4400000E+01  0.3890295E+06  0.8517282E+05  0.1592440E-03 -0.1140643E-03 -0.5585015E-02  0.2577296E-02 -0.1859053E-03  0.6628733E-03 -0.1226908E+07 -0.1416128E+06 -0.9435271E-09 -0.1513906E-08
  0.4500000E+01  0.3890295E+06  0.8043970E+05  0.1592440E-03 -0.1129521E-03 -0.5585015E-02  0.3790442E-02 -0.1859053E-03  0.7192073E-03 -0.1226908E+07 -0.1424680E+06 -0.9435271E-09 -0.1765448E-08
  0.4600000E+01  0.3890295E+06  0.7458066E+05  0.1592440E-03 -0.1116027E-03 -0.5585015E-02  0.5062368E-02 -0.1859053E-03  0.7679307E-03 -0.1226908E+07 -0.1414535E+06 -0.9435271E-09 -0.1943687E-08
  0.4700000E+01  0.3890295E+06  0.6794672E+05  0.1592440E-03 -0.1083859E-03 -0.5585015E-02  0.6375986E-02 -0.1859053E-03  0.8116133E-03 -0.1226908E+07 -0.1385714E+06 -0.9435271E-09 -0.2038098E-08
  0.4800000E+01  0.3890295E+06  0.6091669E+05  0.1592440E-03 -0.1010345E-03 -0.5585015E-02  0.7708229E-02 -0.1859053E-03  0.8513202E-03 -0.1226908E+07 -0.1337420E+06 -0.9435271E-09 -0.2044381E-08
  0.4900000E+01  0.3890295E+06  0.5381600E+05  0.1592440E-03 -0.8726576E-04 -0.5585015E-02  0.9033279E-02 -0.1859053E-03  0.8859400E-03 -0.1226908E+07 -0.1269055E+06 -0.9435271E-09 -0.1965240E-08
  0.5000000E+01  0.3890295E+06  0.4685579E+05  0.1592440E-03 -0.6543753E-04 -0.5585015E-02  0.1032511E-01 -0.1859053E-03  0.9121840E-03 -0.1226908E+07 -0.1181168E+06 -0.9435271E-09 -0.1810361E-08
  0.5100000E+01  0.3890295E+06  0.4011159E+05  0.1592440E-03 -0.3507319E-04 -0.5585015E-02  0.1155909E-01 -0.1859053E-03  0.9252811E-03 -0.1226908E+07 -0.1075989E+06 -0.9435271E-09 -0.1595530E-08
  0.5200000E+01  0.3890295E+06  0.3354716E+05  0.1592440E-03  0.2870654E-05 -0.5585015E-02  0.1271280E-01 -0.1859053E-03  0.9201518E-03 -0.1226908E+07 -0.9574022E+05 -0.9435271E-09 -0.1340982E-08
  0.5300000E+01  0.3890295E+06  0.2707482E+05  0.1592440E-03  0.4606319E-04 -0.5585015E-02  0.1376603E-01 -0.1859053E-03  0.8927423E-03 -0.1226908E+07 -0.8303708E+05 -0.9435271E-09 -0.1069111E-08
  0.5400000E+01  0.3890295E+06  0.2062618E+05  0.1592440E-03  0.9116361E-04 -0.5585015E-02  0.1470099E-01 -0.1859053E-03  0.8410659E-03 -0.1226908E+07 -0.7000548E+05 -0.9435271E-09 -0.8018505E-09
  0.5500000E+01  0.3890295E+06  0.1420960E+05  0.1592440E-03  0.1343982E-03 -0.5585015E-02  0.1550264E-01 -0.1859053E-03  0.7656679E-03 -0.1226908E+07 -0.5709315E+05 -0.9435271E-09 -0.5580392E-09
  0.5600000E+01  0.3890295E+06  0.7931990E+04  0.1592440E-03  0.1722120E-03 -0.5585015E-02  0.1615987E-01 -0.1859053E-03  0.6693803E-03 -0.1226908E+07 -0.4462013E+05 -0.9435271E-09 -0.3512337E-09
  0.5700000E+01  0.3890295E+06  0.1978434E+04  0.1592440E-03  0.2018379E-03 -0.5585015E-02  0.1666648E-01 -0.1859053E-03  0.5564656E-03 -0.1226908E+07 -0.3276670E+05 -0.9435271E-09 -0.1883371E-09
  0.5800000E+01  0.3890295E+06 -0.3441843E+04  0.1592440E-03  0.2216649E-03 -0.5585015E-02  0.1702229E-01 -0.1859053E-03  0.4314879E-03 -0.1226908E+07 -0.2160728E+05 -0.9435271E-09 -0.6933445E-10
  0.5900000E+01  0.3890295E+06 -0.8163062E+04  0.1592440E-03  0.2313346E-03 -0.5585015E-02  0.1723320E-01 -0.1859053E-03  0.2982978E-03 -0.1226908E+07 -0.1117165E+05 -0.9435271E-09  0.1178753E-10
  0.6000000E+01  0.3890295E+06 -0.1211771E+05  0.1592440E-03  0.2315671E-03 -0.5585015E-02  0.1731004E-01 -0.1859053E-03  0.1595044E-03 -0.1226908E+07 -0.1509168E+04 -0.9435271E-09  0.6509022E-10
  0.6100000E+01  0.3890295E+06 -0.1535803E+05  0.1592440E-03  0.2237865E-03 -0.5585015E-02  0.1726617E-01 -0.1859053E-03  0.1661710E-04 -0.1226908E+07  0.7273172E+04 -0.9435271E-09  0.1021425E-09
  0.6200000E+01  0.3890295E+06 -0.1803550E+05  0.1592440E-03  0.2096498E-03 -0.5585015E-02  0.1711437E-01 -0.1859053E-03 -0.1292079E-03 -0.1226908E+07  0.1501196E+05 -0.9435271E-09  0.1334371E-09
  0.6300000E+01  0.3890295E+06 -0.2034463E+05  0.1592440E-03  0.1906039E-03 -0.5585015E-02  0.1686394E-01 -0.1859053E-03 -0.2760953E-03 -0.1226908E+07  0.2152894E+05 -0.9435271E-09  0.1663836E-09
  0.6400000E+01  0.3890295E+06 -0.2245074E+05  0.1592440E-03  0.1675695E-03 -0.5585015E-02  0.1651890E-01 -0.1859053E-03 -0.4205034E-03 -0.1226908E+07  0.2669686E+05 -0.9435271E-09  0.2043242E-09
  0.6500000E+01  0.3890295E+06 -0.2442703E+05  0.1592440E-03  0.1408200E-03 -0.5585015E-02  0.1607808E-01 -0.1859053E-03 -0.5567993E-03 -0.1226908E+07  0.3050274E+05 -0.9435271E-09  0.2467794E-09
  0.6600000E+01  0.3890295E+06 -0.2622309E+05  0.1592440E-03  0.1100639E-03 -0.5585015E-02  0.1553725E-01 -0.1859053E-03 -0.6776413E-03 -0.1226908E+07  0.3308352E+05 -0.9435271E-09  0.2907712E-09
  0.6700000E+01  0.3890295E+06 -0.2767697E+05  0.1592440E-03  0.7469500E-04 -0.5585015E-02  0.1489300E-01 -0.1859053E-03 -0.7751580E-03 -0.1226908E+07  0.3471684E+05 -0.9435271E-09  0.3327895E-09
  0.6800000E+01  0.3890295E+06 -0.2856597E+05  0.1592440E-03  0.3413992E-04 -0.5585015E-02  0.1414694E-01 -0.1859053E-03 -0.8426505E-03 -0.1226908E+07  0.3576618E+05 -0.9435271E-09  0.3707611E-09
  0.6900000E+01  0.3890295E+06 -0.2868030E+05  0.1592440E-03 -0.1178440E-04 -0.5585015E-02  0.1330917E-01 -0.1859053E-03 -0.8763315E-03 -0.1226908E+07  0.3659433E+05 -0.9435271E-09  0.4054009E-09
  0.7000000E+01  0.3890295E+06 -0.2789389E+05  0.1592440E-03 -0.6258365E-04 -0.5585015E-02  0.1239973E-01 -0.1859053E-03 -0.8765455E-03 -0.1226908E+07  0.3747149E+05 -0.9435271E-09  0.4405031E-09
  0.7100000E+01  0.3890295E+06 -0.2620992E+05  0.1592440E-03 -0.1169329E-03 -0.5585015E-02  0.1144690E-01 -0.1859053E-03 -0.8480478E-03 -0.1226908E+07  0.3850650E+05 -0.9435271E-09  0.4820537E-09
  0.7200000E+01  0.3890295E+06 -0.2376665E+05  0.1592440E-03 -0.1726848E-03 -0.5585015E-02  0.1048312E-01 -0.1859053E-03 -0.7991643E-03 -0.1226908E+07  0.3962148E+05 -0.9435271E-09  0.5364318E-09
  0.7300000E+01  0.3890295E+06 -0.2080385E+05  0.1592440E-03 -0.2270352E-03 -0.5585015E-02  0.9539051E-02 -0.1859053E-03 -0.7399926E-03 -0.1226908E+07  0.4057800E+05 -0.9435271E-09  0.6082264E-09
  0.7400000E+01  0.3890295E+06 -0.1760353E+05  0.1592440E-03 -0.2768150E-03 -0.5585015E-02  0.8637249E-02 -0.1859053E-03 -0.6801005E-03 -0.1226908E+07  0.4104636E+05 -0.9435271E-09  0.6983686E-09
  0.7500000E+01  0.3890295E+06 -0.1442642E+05  0.1592440E-03 -0.3188530E-03 -0.5585015E-02  0.7787730E-02 -0.1859053E-03 -0.6263513E-03 -0.1226908E+07  0.4069621E+05 -0.9435271E-09  0.8031582E-09
  0.7600000E+01  0.3890295E+06 -0.1146619E+05  0.1592440E-03 -0.3503434E-03 -0.5585015E-02  0.6986256E-02 -0.1859053E-03 -0.5814488E-03 -0.1226908E+07  0.3928372E+05 -0.9435271E-09  0.9145429E-09
  0.7700000E+01  0.3890295E+06 -0.8834432E+04  0.1592440E-03 -0.3691622E-03 -0.5585015E-02  0.6216217E-02 -0.1859053E-03 -0.5436330E-03 -0.1226908E+07  0.3671123E+05 -0.9435271E-09  0.1021579E-08
  0.7800000E+01  0.3890295E+06 -0.6577482E+04  0.1592440E-03 -0.3740743E-03 -0.5585015E-02  0.5453586E-02 -0.1859053E-03 -0.5075820E-03 -0.1226908E+07  0.3304775E+05 -0.9435271E-09  0.1112704E-08
  0.7900000E+01  0.3890295E+06 -0.4711937E+04  0.1592440E-03 -0.3648124E-03 -0.5585015E-02  0.4673565E-02 -0.1859053E-03 -0.4662634E-03 -0.1226908E+07  0.2851032E+05 -0.9435271E-09  0.1178194E-08
  0.8000000E+01  0.3890295E+06 -0.3260096E+04  0.1592440E-03 -0.3420150E-03 -0.5585015E-02  0.3857015E-02 -0.1859053E-03 -0.4131691E-03 -0.1226908E+07  0.2341716E+05 -0.9435271E-09  0.1212092E-08
  0.8100000E+01  0.3890295E+06 -0.2264795E+04  0.1592440E-03 -0.3070566E-03 -0.5585015E-02  0.2994921E-02 -0.1859053E-03 -0.3442961E-03 -0.1226908E+07  0.1813117E+05 -0.9435271E-09  0.1213131E-08
  0.8200000E+01  0.3890295E+06 -0.1774441E+04  0.1592440E-03 -0.2618095E-03 -0.5585015E-02  0.2089509E-02 -0.1859053E-03 -0.2592973E-03 -0.1226908E+07  0.1300838E+05 -0.9435271E-09  0.1184441E-08
  0.8300000E+01  0.3890295E+06 -0.1800797E+04  0.1592440E-03 -0.2083937E-03 -0.5585015E-02  0.1151903E-02 -0.1859053E-03 -0.1615003E-03 -0.1226908E+07  0.8361376E+04 -0.9435271E-09  0.1132205E-08
  0.8400001E+01  0.3890295E+06 -0.2267837E+04  0.1592440E-03 -0.1489789E-03 -0.5585015E-02  0.1971878E-03 -0.1859053E-03 -0.5685215E-04 -0.1226908E+07  0.4438945E+04 -0.9435271E-09  0.1063724E-08
  0.8500000E+01  0.3890295E+06 -0.2975546E+04  0.1592440E-03 -0.8566841E-04 -0.5585015E-02 -0.7614868E-03 -0.1859053E-03  0.4784698E-04 -0.1226908E+07  0.1414611E+04 -0.9435271E-09  0.9854793E-09
  0.8600000E+01  0.3890295E+06 -0.3602838E+04  0.1592440E-03 -0.2048447E-04 -0.5585015E-02 -0.1717734E-02 -0.1859053E-03  0.1468335E-03 -0.1226908E+07 -0.6235721E+03 -0.9435271E-09  0.9017275E-09
  0.8700000E+01  0.3890295E+06 -0.3760606E+04  0.1592440E-03  0.4456439E-04 -0.5585015E-02 -0.2673948E-02 -0.1859053E-03  0.2367863E-03 -0.1226908E+07 -0.1686704E+04 -0.9435271E-09  0.8139255E-09
  0.8800000E+01  0.3890295E+06 -0.3088724E+04  0.1592440E-03  0.1073911E-03 -0.5585015E-02 -0.3639906E-02 -0.1859053E-03  0.3173372E-03 -0.1226908E+07 -0.1900738E+04 -0.9435271E-09  0.7209792E-09
  0.8900001E+01  0.3890295E+06 -0.1371863E+04  0.1592440E-03  0.1657596E-03 -0.5585015E-02 -0.4628096E-02 -0.1859053E-03  0.3905309E-03 -0.1226908E+07 -0.1514078E+04 -0.9435271E-09  0.6200585E-09
  0.9000000E+01  0.3890295E+06  0.1361893E+04  0.1592440E-03  0.2173176E-03 -0.5585015E-02 -0.5647393E-02 -0.1859053E-03  0.4594665E-03 -0.1226908E+07 -0.8843579E+03 -0.9435271E-09  0.5075550E-09
  0.9100000E+01  0.3890295E+06  0.4798049E+04  0.1592440E-03  0.2597513E-03 -0.5585015E-02 -0.6697105E-02 -0.1859053E-03  0.5265845E-03 -0.1226908E+07 -0.4340506E+03 -0.9435271E-09  0.3797897E-09
  0.9200000E+01  0.3890295E+06  0.8370934E+04  0.1592440E-03  0.2910598E-03 -0.5585015E-02 -0.7763255E-02 -0.1859053E-03  0.5921722E-03 -0.1226908E+07 -0.5741480E+03 -0.9435271E-09  0.2333087E-09
  0.9300000E+01  0.3890295E+06  0.1138044E+05  0.1592440E-03  0.3099043E-03 -0.5585015E-02 -0.8818837E-02 -0.1859053E-03  0.6536125E-03 -0.1226908E+07 -0.1607865E+04 -0.9435271E-09  0.6481340E-10
  0.9400001E+01  0.3890295E+06  0.1316445E+05  0.1592440E-03  0.3159312E-03 -0.5585015E-02 -0.9827903E-02 -0.1859053E-03  0.7056198E-03 -0.1226908E+07 -0.3638258E+04 -0.9435271E-09 -0.1289530E-09
  0.9500000E+01  0.3890295E+06  0.1328279E+05  0.1592440E-03  0.3099780E-03 -0.5585015E-02 -0.1075285E-01 -0.1859053E-03  0.7414172E-03 -0.1226908E+07 -0.6509678E+04 -0.9435271E-09 -0.3509738E-09
  0.9600000E+01  0.3890295E+06  0.1165770E+05  0.1592440E-03  0.2940625E-03 -0.5585015E-02 -0.1156265E-01 -0.1859053E-03  0.7544873E-03 -0.1226908E+07 -0.9808477E+04 -0.9435271E-09 -0.6030825E-09
  0.9700000E+01  0.3890295E+06  0.8625770E+04  0.1592440E-03  0.2711249E-03 -0.5585015E-02 -0.1223991E-01 -0.1859053E-03  0.7403707E-03 -0.1226908E+07 -0.1293425E+05 -0.9435271E-09 -0.8843690E-09
  0.9800000E+01  0.3890295E+06  0.4878165E+04  0.1592440E-03  0.2445287E-03 -0.5585015E-02 -0.1278463E-01 -0.1859053E-03  0.6979451E-03 -0.1226908E+07 -0.1523365E+05 -0.9435271E-09 -0.1189266E-08
  0.9900001E+01  0.3890295E+06  0.1298126E+04  0.1592440E-03  0.2174315E-03 -0.5585015E-02 -0.1321352E-01 -0.1859053E-03  0.6298246E-03 -0.1226908E+07 -0.1616632E+05 -0.9435271E-09 -0.1505799E-08
Zone t="DoF    2",I=   100,F=POINT
  0.0000000E+00  0.2120428E-03 -0.3692518E-03  0.3890290E+06  0.5434523E+06  0.4998687E-04  0.7410745E-04  0.1226906E+07  0.2527607E+06  0.3863192E-03 -0.1186569E-02  0.2831805E-08 -0.5316704E-08
  0.1000000E+00  0.2120428E-03 -0.3570459E-03  0.3890290E+06  0.5304304E+06  0.4998687E-04  0.7291028E-04  0.1226906E+07  0.2579246E+06  0.3863192E-03 -0.1179015E-02  0.2831805E-08 -0.5217319E-08
  0.2000000E+00  0.2120428E-03 -0.3213864E-03  0.3890290E+06  0.4926648E+06  0.4998687E-04  0.6931512E-04  0.1226906E+07  0.2720269E+06  0.3863192E-03 -0.1156086E-02  0.2831805E-08 -0.4913018E-08
  0.3000000E+00  0.2120428E-03 -0.2650896E-03  0.3890290E+06  0.4338334E+06  0.4998687E-04  0.6331997E-04  0.1226906E+07  0.2911973E+06  0.3863192E-03 -0.1117112E-02  0.2831805E-08 -0.4387586E-08
  0.4000000E+00  0.2120428E-03 -0.1926527E-03  0.3890290E+06  0.3593842E+06  0.4998687E-04  0.5494552E-04  0.1226906E+07  0.3099079E+06  0.3863192E-03 -0.1061345E-02  0.2831805E-08 -0.3621229E-08
  0.5000000E+00  0.2120428E-03 -0.1099353E-03  0.3890290E+06  0.2756681E+06  0.4998687E-04  0.4426491E-04  0.1226906E+07  0.3221299E+06  0.3863192E-03 -0.9883898E-03  0.2831805E-08 -0.2600534E-08
  0.6000000E+00  0.2120428E-03 -0.2368871E-04  0.3890290E+06  0.1889989E+06  0.4998687E-04  0.3143206E-04  0.1226906E+07  0.3225523E+06  0.3863192E-03 -0.8985964E-03  0.2831805E-08 -0.1330558E-08
  0.7000000E+00  0.2120428E-03  0.5905549E-04  0.3890290E+06  0.1048365E+06  0.4998687E-04  0.1670181E-04  0.1226906E+07  0.3075977E+06  0.3863192E-03 -0.7932700E-03  0.2831805E-08  0.1532550E-09
  0.8000000E+00  0.2120428E-03  0.1316995E-03  0.3890290E+06  0.2723795E+05  0.4998687E-04  0.4346587E-06  0.1226906E+07  0.2760184E+06  0.3863192E-03 -0.6746328E-03  0.2831805E-08  0.1776255E-08
  0.9000000E+00  0.2120428E-03  0.1888079E-03  0.3890290E+06 -0.4135026E+05  0.4998687E-04 -0.1691506E-04  0.1226906E+07  0.2289787E+06  0.3863192E-03 -0.5455420E-03  0.2831805E-08  0.3422058E-08
  0.1000000E+01  0.2120428E-03  0.2267442E-03  0.3890290E+06 -0.9996238E+05  0.4998687E-04 -0.3482624E-04  0.1226906E+07  0.1696485E+06  0.3863192E-03 -0.4090303E-03  0.2831805E-08  0.4938923E-08
  0.1100000E+01  0.2120428E-03  0.2440955E-03  0.3890290E+06 -0.1487398E+06  0.4998687E-04 -0.5274735E-04  0.1226906E+07  0.1024519E+06  0.3863192E-03 -0.2678196E-03  0.2831805E-08  0.6156069E-08
  0.1200000E+01  0.2120428E-03  0.2417889E-03  0.3890290E+06 -0.1884423E+06  0.4998687E-04 -0.7013483E-04  0.1226906E+07  0.3217905E+05  0.3863192E-03 -0.1239577E-03  0.2831805E-08  0.6908864E-08
  0.1300000E+01  0.2120428E-03  0.2228614E-03  0.3890290E+06 -0.2199864E+06  0.4998687E-04 -0.8648675E-04  0.1226906E+07 -0.3682291E+05  0.3863192E-03  0.2130243E-04  0.2831805E-08  0.7068873E-08
  0.1400000E+01  0.2120428E-03  0.1919029E-03  0.3890290E+06 -0.2441179E+06  0.4998687E-04 -0.1013658E-03  0.1226906E+07 -0.1012048E+06  0.3863192E-03  0.1673295E-03  0.2831805E-08  0.6573069E-08
  0.1500000E+01  0.2120428E-03  0.1542708E-03  0.3890290E+06 -0.2612784E+06  0.4998687E-04 -0.1144106E-03  0.1226906E+07 -0.1588381E+06  0.3863192E-03  0.3136862E-03  0.2831805E-08  0.5445106E-08
  0.1600000E+01  0.2120428E-03  0.1152293E-03  0.3890290E+06 -0.2716481E+06  0.4998687E-04 -0.1253347E-03  0.1226906E+07 -0.2087139E+06  0.3863192E-03  0.4595634E-03  0.2831805E-08  0.3802565E-08
  0.1700000E+01  0.2120428E-03  0.7917888E-04  0.3890290E+06 -0.2753166E+06  0.4998687E-04 -0.1339188E-03  0.1226906E+07 -0.2506177E+06  0.3863192E-03  0.6032506E-03  0.2831805E-08  0.1846375E-08
  0.1800000E+01  0.2120428E-03  0.4913227E-04  0.3890290E+06 -0.2724865E+06  0.4998687E-04 -0.1399993E-03  0.1226906E+07 -0.2847189E+06  0.3863192E-03  0.7418061E-03  0.2831805E-08 -0.1675880E-09
  0.1900000E+01  0.2120428E-03  0.2652636E-04  0.3890290E+06 -0.2636318E+06  0.4998687E-04 -0.1434581E-03  0.1226906E+07 -0.3112155E+06  0.3863192E-03  0.8710474E-03  0.2831805E-08 -0.1970222E-08
  0.2000000E+01  0.2120428E-03  0.1138450E-04  0.3890290E+06 -0.2495519E+06  0.4998687E-04 -0.1442147E-03  0.1226906E+07 -0.3301290E+06  0.3863192E-03  0.9859045E-03  0.2831805E-08 -0.3326462E-08
  0.2100000E+01  0.2120428E-03  0.2754461E-05  0.3890290E+06 -0.2313135E+06  0.4998687E-04 -0.1422238E-03  0.1226906E+07 -0.3412895E+06  0.3863192E-03  0.1081064E-02  0.2831805E-08 -0.4078048E-08
  0.2200000E+01  0.2120428E-03 -0.7183237E-06  0.3890290E+06 -0.2101027E+06  0.4998687E-04 -0.1374742E-03  0.1226906E+07 -0.3444778E+06  0.3863192E-03  0.1151777E-02  0.2831805E-08 -0.4172386E-08
  0.2300000E+01  0.2120428E-03 -0.2475593E-06  0.3890290E+06 -0.1870449E+06  0.4998687E-04 -0.1299898E-03  0.1226906E+07 -0.3396357E+06  0.3863192E-03  0.1194630E-02  0.2831805E-08 -0.3670747E-08
  0.2400000E+01  0.2120428E-03  0.3455247E-05  0.3890290E+06 -0.1630542E+06  0.4998687E-04 -0.1198290E-03  0.1226906E+07 -0.3270698E+06  0.3863192E-03  0.1208113E-02  0.2831805E-08 -0.2733656E-08
  0.2500000E+01  0.2120428E-03  0.1026567E-04  0.3890290E+06 -0.1387590E+06  0.4998687E-04 -0.1070836E-03  0.1226906E+07 -0.3075477E+06  0.3863192E-03  0.1192840E-02  0.2831805E-08 -0.1586583E-08
  0.2600000E+01  0.2120428E-03  0.2044928E-04  0.3890290E+06 -0.1145145E+06  0.4998687E-04 -0.9187737E-04  0.1226906E+07 -0.2822689E+06  0.3863192E-03  0.1151394E-02  0.2831805E-08 -0.4735274E-09
  0.2700000E+01  0.2120428E-03  0.3425669E-04  0.3890290E+06 -0.9049738E+05  0.4998687E-04 -0.7436480E-04  0.1226906E+07 -0.2527091E+06  0.3863192E-03  0.1087836E-02  0.2831805E-08  0.3911262E-09
  0.2800000E+01  0.2120428E-03  0.5145042E-04  0.3890290E+06 -0.6683327E+05  0.4998687E-04 -0.5473477E-04  0.1226906E+07 -0.2203970E+06  0.3863192E-03  0.1007003E-02  0.2831805E-08  0.8620368E-09
  0.2900000E+01  0.2120428E-03  0.7092624E-04  0.3890290E+06 -0.4371373E+05  0.4998687E-04 -0.3321586E-04  0.1226906E+07 -0.1866929E+06  0.3863192E-03  0.9137727E-03  0.2831805E-08  0.8854424E-09
  0.3000000E+01  0.2120428E-03  0.9056534E-04  0.3890290E+06 -0.2146006E+05  0.4998687E-04 -0.1008586E-04  0.1226906E+07 -0.1526392E+06  0.3863192E-03  0.8124360E-03  0.2831805E-08  0.5010941E-09
  0.3100000E+01  0.2120428E-03  0.1073908E-03  0.3890290E+06 -0.5152753E+03  0.4998687E-04  0.1431983E-04  0.1226906E+07 -0.1189156E+06  0.3863192E-03  0.7063015E-03  0.2831805E-08 -0.1752879E-09
  0.3200000E+01  0.2120428E-03  0.1180111E-03  0.3890290E+06  0.1862720E+05  0.4998687E-04  0.3960344E-04  0.1226906E+07 -0.8590466E+05  0.3863192E-03  0.5975814E-03  0.2831805E-08 -0.9833858E-09
  0.3300000E+01  0.2120428E-03  0.1192496E-03  0.3890290E+06  0.3552976E+05  0.4998687E-04  0.6530891E-04  0.1226906E+07 -0.5382892E+05  0.3863192E-03  0.4875228E-03  0.2831805E-08 -0.1755207E-08
  0.3400000E+01  0.2120428E-03  0.1088050E-03  0.3890290E+06  0.4991023E+05  0.4998687E-04  0.9093559E-04  0.1226906E+07 -0.2290452E+05  0.3863192E-03  0.3767060E-03  0.2831805E-08 -0.2348749E-08
  0.3500000E+01  0.2120428E-03  0.8576900E-04  0.3890290E+06  0.6169908E+05  0.4998687E-04  0.1159627E-03  0.1226906E+07  0.6543851E+04  0.3863192E-03  0.2654032E-03  0.2831805E-08 -0.2671505E-08
  0.3600000E+01  0.2120428E-03  0.5086239E-04  0.3890290E+06  0.7103590E+05  0.4998687E-04  0.1398795E-03  0.1226906E+07  0.3404725E+05  0.3863192E-03  0.1538939E-03  0.2831805E-08 -0.2690080E-08
  0.3700000E+01  0.2120428E-03  0.6333225E-05  0.3890290E+06  0.7820570E+05  0.4998687E-04  0.1622158E-03  0.1226906E+07  0.5903965E+05  0.3863192E-03  0.4267982E-04  0.2831805E-08 -0.2426130E-08
  0.3800000E+01  0.2120428E-03 -0.4446361E-04  0.3890290E+06  0.8354145E+05  0.4998687E-04  0.1825661E-03  0.1226906E+07  0.8096865E+05  0.3863192E-03 -0.6743031E-04  0.2831805E-08 -0.1941988E-08
  0.3900000E+01  0.2120428E-03 -0.9769007E-04  0.3890290E+06  0.8732506E+05  0.4998687E-04  0.2006000E-03  0.1226906E+07  0.9942257E+05  0.3863192E-03 -0.1753341E-03  0.2831805E-08 -0.1321207E-08
  0.4000000E+01  0.2120428E-03 -0.1496906E-03  0.3890290E+06  0.8972067E+05  0.4998687E-04  0.2160577E-03  0.1226906E+07  0.1142274E+06  0.3863192E-03 -0.2797053E-03  0.2831805E-08 -0.6495113E-09
  0.4100000E+01  0.2120428E-03 -0.1975376E-03  0.3890290E+06  0.9076094E+05  0.4998687E-04  0.2287300E-03  0.1226906E+07  0.1254791E+06  0.3863192E-03 -0.3790775E-03  0.2831805E-08 -0.1414750E-12
  0.4200000E+01  0.2120428E-03 -0.2393248E-03  0.3890290E+06  0.9038787E+05  0.4998687E-04  0.2384316E-03  0.1226906E+07  0.1334991E+06  0.3863192E-03 -0.4719030E-03  0.2831805E-08  0.5743522E-09
  0.4300000E+01  0.2120428E-03 -0.2741631E-03  0.3890290E+06  0.8852742E+05  0.4998687E-04  0.2449714E-03  0.1226906E+07  0.1387311E+06  0.3863192E-03 -0.5565943E-03  0.2831805E-08  0.1044131E-08
  0.4400000E+01  0.2120428E-03 -0.3019118E-03  0.3890290E+06  0.8517266E+05  0.4998687E-04  0.2481362E-03  0.1226906E+07  0.1416124E+06  0.3863192E-03 -0.6315644E-03  0.2831805E-08  0.1399750E-08
  0.4500000E+01  0.2120428E-03 -0.3227540E-03  0.3890290E+06  0.8043951E+05  0.4998687E-04  0.2476907E-03  0.1226906E+07  0.1424676E+06  0.3863192E-03 -0.6952932E-03  0.2831805E-08  0.1647663E-08
  0.4600000E+01  0.2120428E-03 -0.3367553E-03  0.3890290E+06  0.7458045E+05  0.4998687E-04  0.2433972E-03  0.1226906E+07  0.1414532E+06  0.3863192E-03 -0.7464397E-03  0.2831805E-08  0.1805462E-08
  0.4700000E+01  0.2120428E-03 -0.3435580E-03  0.3890290E+06  0.6794656E+05  0.4998687E-04  0.2350558E-03  0.1226906E+07  0.1385711E+06  0.3863192E-03 -0.7839939E-03  0.2831805E-08  0.1897712E-08
  0.4800000E+01  0.2120428E-03 -0.3422903E-03  0.3890290E+06  0.6091658E+05  0.4998687E-04  0.2225537E-03  0.1226906E+07  0.1337418E+06  0.3863192E-03 -0.8074362E-03  0.2831805E-08  0.1952042E-08
  0.4900000E+01  0.2120428E-03 -0.3317205E-03  0.3890290E+06  0.5381591E+05  0.4998687E-04  0.2059130E-03  0.1226906E+07  0.1269052E+06  0.3863192E-03 -0.8168492E-03  0.2831805E-08  0.1994843E-08
  0.5000000E+01  0.2120428E-03 -0.3105972E-03  0.3890290E+06  0.4685572E+05  0.4998687E-04  0.1853250E-03  0.1226906E+07  0.1181165E+06  0.3863192E-03 -0.8129285E-03  0.2831805E-08  0.2046010E-08