VARIABLES="w (rad/s)"
"A   1   1" "B   1   1"
"A   1   2" "B   1   2"
"A   1   3" "B   1   3"
"A   1   4" "B   1   4"
"A   1   5" "B   1   5"
"A   1   6" "B   1   6"
Zone t="Motion of body    1 in DoF   1",I=   500,F=POINT
  0.5257440E+00  0.6596734E+06  0.4726727E+04 -0.2945858E-02  0.2157688E-04 -0.1324620E+00 -0.2179384E-01 -0.5209669E-02 -0.2381802E-03 -0.1555993E+07 -0.1064137E+05  0.3277159E-07 -0.8731149E-10
  0.5320246E+00  0.6614303E+06  0.5113904E+04 -0.3068825E-02  0.1871586E-04 -0.1372080E+00 -0.2578449E-01  0.1534412E-01 -0.1068115E-03 -0.1558421E+07 -0.1149235E+05 -0.1750525E-08  0.9822543E-10
  0.5383052E+00  0.6630653E+06  0.5526601E+04 -0.5343217E-02 -0.1823902E-04 -0.1978549E+00 -0.3781033E-01  0.1128170E-01 -0.1723766E-03 -0.1560658E+07 -0.1239767E+05  0.1211071E-07  0.9458745E-10
  0.5445858E+00  0.6647491E+06  0.5966812E+04 -0.1863268E-02 -0.2956390E-04 -0.1718690E+00 -0.3906822E-01  0.1228636E-01  0.4100800E-04 -0.1563017E+07 -0.1336113E+05 -0.2479715E-07  0.4365575E-10
  0.5508664E+00  0.6665642E+06  0.6436299E+04 -0.2479116E-02  0.2777576E-04 -0.2092983E+00 -0.4291916E-01 -0.3074657E-02 -0.8869171E-04 -0.1565487E+07 -0.1438548E+05  0.2535976E-08  0.6548362E-10
  0.5571470E+00  0.6684176E+06  0.6936229E+04  0.3464502E-02  0.1621246E-04 -0.1912186E+00 -0.4115582E-01 -0.1276251E-01  0.2789497E-04 -0.1568235E+07 -0.1547464E+05 -0.2423809E-07 -0.2837623E-09
  0.5634276E+00  0.6702334E+06  0.7467677E+04 -0.7122586E-02 -0.4267693E-04 -0.2009490E+00 -0.4904366E-01  0.1160467E-01  0.8010864E-04 -0.1570767E+07 -0.1662892E+05 -0.9917752E-08  0.5093170E-10
  0.5697082E+00  0.6720546E+06  0.8032413E+04  0.6963714E-03  0.5125999E-04 -0.1915557E+00 -0.3754139E-01  0.3401506E-02 -0.3645420E-03 -0.1573417E+07 -0.1785313E+05  0.2533841E-07 -0.3637979E-09
  0.5759888E+00  0.6739396E+06  0.8632325E+04  0.5271802E-02 -0.1668930E-05 -0.2136272E+00 -0.5534458E-01 -0.5192327E-02 -0.1218319E-03 -0.1576423E+07 -0.1915192E+05 -0.8893010E-08  0.2182787E-09
  0.5822694E+00  0.6758369E+06  0.9268859E+04  0.5398379E-02  0.3600121E-04 -0.1830732E+00 -0.5011177E-01 -0.1341733E-01  0.6580353E-04 -0.1579541E+07 -0.2052729E+05 -0.2959020E-07  0.1236913E-09
  0.5885500E+00  0.6775010E+06  0.9942030E+04 -0.1048710E-01 -0.4053116E-04 -0.1913863E+00 -0.5504608E-01 -0.2864831E-01  0.1811981E-04 -0.1582105E+07 -0.2197790E+05  0.1740642E-07 -0.2546585E-09
  0.5948306E+00  0.6793231E+06  0.1065607E+05  0.4963725E-02 -0.3147125E-04 -0.1839272E+00 -0.5762196E-01 -0.1967533E-01 -0.1764297E-03 -0.1585210E+07 -0.2351459E+05 -0.2818249E-07 -0.2764864E-09
  0.6011113E+00  0.6812427E+06  0.1141250E+05 -0.8592585E-02  0.3218651E-04 -0.1459090E+00 -0.4314232E-01  0.1887323E-01 -0.5207062E-03 -0.1588608E+07 -0.2513946E+05 -0.1162001E-07  0.7421477E-09
  0.6073918E+00  0.6831079E+06  0.1221193E+05 -0.4697781E-02 -0.1907349E-03 -0.1450032E+00 -0.6053162E-01 -0.5840824E-02  0.9965897E-04 -0.1591708E+07 -0.2685134E+05 -0.7666572E-09  0.2619345E-09
  0.6136725E+00  0.6850586E+06  0.1305751E+05 -0.8329678E-02 -0.9489059E-04 -0.1143777E+00 -0.5918884E-01  0.4774024E-02 -0.4053116E-04 -0.1595152E+07 -0.2865893E+05  0.1593503E-07 -0.2619345E-09
  0.6199530E+00  0.6869527E+06  0.1394986E+05  0.9598998E-02 -0.2980232E-04 -0.1230641E+00 -0.5974197E-01  0.2111780E-01  0.1292229E-03 -0.1598714E+07 -0.3056458E+05 -0.2103146E-07 -0.1455192E-09
  0.6262337E+00  0.6887767E+06  0.1489079E+05  0.2278218E-02 -0.1020432E-03 -0.7821475E-01 -0.6083488E-01 -0.2923916E-02  0.5030632E-03 -0.1602095E+07 -0.3256891E+05 -0.2974361E-08 -0.2328306E-09
  0.6325143E+00  0.6908402E+06  0.1588499E+05  0.3449735E-02 -0.8821487E-04 -0.7111762E-01 -0.6481743E-01 -0.2069841E-01 -0.1115799E-03 -0.1605607E+07 -0.3467689E+05  0.2797586E-07  0.1600711E-09
  0.6387949E+00  0.6929384E+06  0.1693276E+05  0.2328967E-02 -0.3123283E-03 -0.1025223E+00 -0.8697319E-01 -0.5314821E-02  0.7562637E-03 -0.1608682E+07 -0.3688638E+05 -0.2186905E-08  0.7566996E-09
  0.6450755E+00  0.6951361E+06  0.1803754E+05 -0.3075055E-03 -0.1969337E-03 -0.7834294E-01 -0.8791733E-01 -0.4245941E-02 -0.1907349E-04 -0.1612079E+07 -0.3921099E+05 -0.7218710E-08 -0.5093170E-09
  0.6513561E+00  0.6973076E+06  0.1919983E+05  0.4591533E-02 -0.2031326E-03 -0.1033095E+00 -0.1051006E+00 -0.7262118E-03 -0.5340576E-04 -0.1615014E+07 -0.4164400E+05 -0.1429821E-07 -0.1018634E-08
  0.6576367E+00  0.6994938E+06  0.2042248E+05  0.2772694E-02 -0.4529953E-04 -0.9350591E-01 -0.9299278E-01  0.2784295E-03  0.5846024E-03 -0.1617973E+07 -0.4419574E+05  0.3398798E-07 -0.5529728E-09
  0.6639173E+00  0.7017219E+06  0.2170844E+05 -0.1034233E-02  0.1139641E-03 -0.1121109E+00 -0.1124096E+00  0.5642318E-02 -0.2918243E-03 -0.1621082E+07 -0.4687261E+05  0.2174292E-07 -0.9313226E-09
  0.6701979E+00  0.7040678E+06  0.2306122E+05 -0.7171790E-02  0.2145767E-04 -0.1065068E+00 -0.1029282E+00 -0.2643317E-01 -0.4196167E-04 -0.1624467E+07 -0.4968105E+05  0.1042217E-07  0.7566996E-09
  0.6764785E+00  0.7061209E+06  0.2447682E+05  0.4060117E-02 -0.2255440E-03 -0.1487807E+00 -0.1277542E+00 -0.1804497E-02 -0.1020432E-03 -0.1627062E+07 -0.5260728E+05 -0.7571969E-08  0.0000000E+00
  0.6827591E+00  0.7082186E+06  0.2596272E+05 -0.1229179E-03  0.3657341E-03 -0.1270748E+00 -0.1092186E+00 -0.7777353E-02  0.4100800E-03 -0.1629678E+07 -0.5566813E+05 -0.5456229E-08  0.4074536E-09
  0.6890397E+00  0.7104789E+06  0.2752403E+05  0.1771601E-03  0.3900528E-03 -0.1332687E+00 -0.1105843E+00 -0.9965253E-02 -0.1085281E-02 -0.1632808E+07 -0.5887771E+05 -0.5406496E-08 -0.1076842E-08
  0.6953203E+00  0.7127337E+06  0.2916001E+05 -0.5398465E-02 -0.2131462E-03 -0.1618662E+00 -0.1165619E+00 -0.1494453E-01  0.9346008E-04 -0.1635681E+07 -0.6222550E+05  0.1406386E-07  0.1396984E-08
  0.7016009E+00  0.7149556E+06  0.3087265E+05  0.6307074E-02  0.3623962E-04 -0.1917350E+00 -0.1254349E+00  0.1596342E-01 -0.2441406E-03 -0.1638353E+07 -0.6571605E+05  0.1128311E-07  0.5820766E-10
  0.7078815E+00  0.7172379E+06  0.3266688E+05  0.9613784E-02  0.2670288E-03 -0.1821877E+00 -0.1078873E+00  0.1612357E-01 -0.9250641E-04 -0.1641210E+07 -0.6936148E+05  0.1644560E-07  0.1047738E-08
  0.7141621E+00  0.7194834E+06  0.3454323E+05  0.5832918E-02  0.2603531E-03 -0.1538352E+00 -0.9745026E-01 -0.8311375E-02  0.1031876E-02 -0.1644164E+07 -0.7316622E+05  0.1043262E-07 -0.2037268E-09
  0.7204427E+00  0.7216142E+06  0.3650208E+05  0.8111840E-02 -0.6961823E-04 -0.1545274E+00 -0.7469940E-01  0.9996837E-02 -0.7266998E-03 -0.1646744E+07 -0.7712080E+05 -0.5170835E-08  0.5529728E-09
  0.7267233E+00  0.7238351E+06  0.3855157E+05 -0.2288640E-02  0.8678436E-04 -0.1371084E+00 -0.6875229E-01  0.2950036E-01 -0.1061440E-02 -0.1649679E+07 -0.8124946E+05 -0.1794151E-07  0.2211891E-08
  0.7330039E+00  0.7261111E+06  0.4069333E+05  0.2144129E-02 -0.5168915E-03 -0.8822156E-01 -0.6426239E-01 -0.3014271E-01  0.1201630E-03 -0.1652599E+07 -0.8554691E+05 -0.3811668E-08 -0.1804437E-08
  0.7392845E+00  0.7283209E+06  0.4292698E+05  0.4355028E-02 -0.5340576E-03 -0.8511912E-01 -0.3897476E-01 -0.1114557E-02 -0.6103516E-04 -0.1655427E+07 -0.9001469E+05 -0.6928691E-08  0.6402843E-09
  0.7455651E+00  0.7305728E+06  0.4525886E+05 -0.3458766E-02  0.4711151E-03 -0.6786549E-01 -0.4203033E-01 -0.6999397E-02 -0.2346039E-03 -0.1658508E+07 -0.9466849E+05  0.3122875E-07 -0.1455192E-08
  0.7518457E+00  0.7327568E+06  0.4768729E+05 -0.2212167E-02 -0.2985001E-03 -0.5690748E-01 -0.2444839E-01 -0.3368988E-02 -0.1602173E-03 -0.1661250E+07 -0.9949109E+05 -0.1981944E-07 -0.2270099E-08
  0.7581264E+00  0.7349012E+06  0.5021617E+05  0.4246791E-02 -0.1430511E-03 -0.1883885E-01  0.2176666E-01  0.7648250E-03  0.4768372E-04 -0.1664047E+07 -0.1045015E+06  0.3439668E-07  0.1571607E-08
  0.7644069E+00  0.7370399E+06  0.5284944E+05 -0.1816506E-02  0.1306534E-03 -0.7745103E-02  0.1298523E-01  0.1996160E-04  0.1184464E-02 -0.1667023E+07 -0.1097086E+06  0.2741309E-07  0.1338776E-08
  0.7706876E+00  0.7392472E+06  0.5559284E+05 -0.6830631E-02 -0.3004074E-03  0.1013705E-01  0.3779602E-01  0.7424599E-02  0.1115799E-02 -0.1670202E+07 -0.1151182E+06 -0.2416862E-07  0.4656613E-09
  0.7769681E+00  0.7413026E+06  0.5844058E+05  0.5538166E-02  0.2956390E-03 -0.1009439E-01  0.3522491E-01  0.1606461E-01 -0.7534027E-03 -0.1673117E+07 -0.1207152E+06 -0.5633714E-07 -0.1105946E-08
  0.7832488E+00  0.7431720E+06  0.6139265E+05 -0.5708052E-02 -0.3681183E-03  0.2575442E-01  0.6761169E-01  0.1470846E-01 -0.1035690E-02 -0.1675594E+07 -0.1264937E+06 -0.4577846E-07  0.2211891E-08
  0.7895294E+00  0.7450912E+06  0.6446052E+05  0.4561039E-02 -0.1602173E-03  0.6439568E-01  0.9767151E-01  0.1642747E-02  0.4634857E-03 -0.1678163E+07 -0.1324775E+06  0.3538776E-07 -0.2561137E-08
  0.7958100E+00  0.7471558E+06  0.6764776E+05 -0.1016217E-02  0.2555847E-03  0.7286086E-01  0.1186371E+00  0.2456178E-01 -0.1171112E-02 -0.1680780E+07 -0.1386575E+06 -0.1170283E-08  0.4307367E-08
  0.8020905E+00  0.7491854E+06  0.7094958E+05 -0.2473091E-02  0.9918213E-04  0.9724953E-01  0.1391754E+00  0.1188986E-01 -0.1680374E-02 -0.1682893E+07 -0.1450111E+06 -0.1799735E-07 -0.1746230E-08
  0.8083712E+00  0.7511698E+06  0.7436933E+05  0.2906899E-02 -0.8583069E-03  0.9679597E-01  0.1636047E+00 -0.1132558E-01  0.1001358E-02 -0.1684646E+07 -0.1515512E+06 -0.4838810E-07 -0.2444722E-08
  0.8146517E+00  0.7531239E+06  0.7791170E+05  0.9870945E-02 -0.2269745E-03  0.8645973E-01  0.1594696E+00  0.6181047E-02  0.1811981E-03 -0.1686213E+07 -0.1582872E+06 -0.1371859E-07 -0.2910383E-08
  0.8209324E+00  0.7551191E+06  0.8158438E+05 -0.4553850E-02  0.1207352E-02  0.7895819E-01  0.1567612E+00  0.1866149E-01 -0.1638412E-02 -0.1687922E+07 -0.1652471E+06  0.1588257E-07  0.1513399E-08
  0.8272130E+00  0.7569534E+06  0.8537682E+05 -0.1147343E-01 -0.6732941E-03  0.8750793E-01  0.1546783E+00 -0.6548338E-02  0.2536774E-03 -0.1689210E+07 -0.1723946E+06  0.1913955E-07 -0.1164153E-09
  0.8334936E+00  0.7586794E+06  0.8929441E+05 -0.1349228E-01 -0.3490448E-03  0.8867923E-01  0.1417389E+00  0.9428118E-02 -0.1121521E-02 -0.1690088E+07 -0.1797300E+06 -0.1564321E-07 -0.1862645E-08
  0.8397742E+00  0.7604756E+06  0.9335190E+05 -0.6741111E-02 -0.9651184E-03  0.9790055E-01  0.1367035E+00 -0.1073853E-01 -0.3547668E-03 -0.1691242E+07 -0.1873065E+06  0.1441720E-07 -0.9313226E-09
  0.8460548E+00  0.7622431E+06  0.9754436E+05 -0.5735202E-02  0.1525879E-03  0.6276259E-01  0.1147079E+00 -0.5572885E-02 -0.1068115E-03 -0.1692180E+07 -0.1950898E+06 -0.1100783E-07  0.9313226E-09
  0.8523354E+00  0.7638983E+06  0.1018679E+06  0.1951354E-02 -0.6084442E-03  0.7848381E-01  0.1351547E+00  0.5245382E-02 -0.5073547E-03 -0.1692796E+07 -0.2030695E+06  0.7648700E-08 -0.1164153E-08
  0.8586160E+00  0.7655687E+06  0.1063362E+06  0.3394333E-02  0.6103516E-04  0.8835929E-01  0.1229858E+00 -0.1809126E-01 -0.2365112E-03 -0.1693623E+07 -0.2112941E+06 -0.8677430E-08  0.1629815E-08
  0.8648966E+00  0.7670874E+06  0.1109359E+06 -0.4481151E-02 -0.8316040E-03  0.8581228E-01  0.1123199E+00  0.3186204E-01 -0.1804352E-02 -0.1693940E+07 -0.2196979E+06  0.5384011E-08 -0.1164153E-08
  0.8711772E+00  0.7685104E+06  0.1156720E+06  0.1527320E-01 -0.2754211E-02  0.7713667E-01  0.1318970E+00 -0.4203633E-03  0.1850128E-02 -0.1693857E+07 -0.2282899E+06 -0.3634733E-07  0.2328306E-08
  0.8774578E+00  0.7698710E+06  0.1205511E+06 -0.1102511E-01  0.8773804E-04  0.7324571E-01  0.9179688E-01 -0.2973651E-02  0.6031036E-02 -0.1693860E+07 -0.2371170E+06  0.2865746E-07 -0.3608875E-08
  0.8837384E+00  0.7711541E+06  0.1255726E+06  0.6612948E-02  0.2365112E-03  0.7838847E-01  0.9341431E-01 -0.2291222E-01 -0.6599426E-03 -0.1693793E+07 -0.2461636E+06  0.8430754E-08  0.2561137E-08
  0.8900191E+00  0.7724406E+06  0.1307446E+06 -0.3428868E-04  0.5340576E-03  0.6322832E-01  0.8204651E-01 -0.2763667E-01  0.2964020E-02 -0.1693758E+07 -0.2554390E+06  0.3139222E-08 -0.6984919E-09
  0.8962996E+00  0.7735176E+06  0.1360491E+06 -0.4119858E-02  0.9078979E-03  0.7647274E-01  0.9381104E-01  0.3210765E-01 -0.6408691E-03 -0.1693312E+07 -0.2648974E+06 -0.5195375E-08  0.6984919E-09
  0.9025802E+00  0.7743312E+06  0.1414784E+06 -0.1316957E-01  0.8926392E-03  0.9764757E-01  0.1017151E+00 -0.3955944E-02 -0.1113892E-02 -0.1692240E+07 -0.2745080E+06  0.1031845E-07  0.4190952E-08
  0.9088608E+00  0.7750652E+06  0.1470513E+06  0.1460636E-01 -0.2155304E-02  0.1053001E+00  0.9309387E-01 -0.1871964E-01 -0.2059937E-02 -0.1690970E+07 -0.2843137E+06 -0.4303800E-07  0.3026798E-08
  0.9151415E+00  0.7758002E+06  0.1527802E+06 -0.1067116E-01 -0.2132416E-02  0.1019763E+00  0.1267548E+00  0.1620683E-01 -0.5455017E-03 -0.1689870E+07 -0.2943609E+06 -0.1221218E-07  0.6053597E-08
  0.9214220E+00  0.7765207E+06  0.1586629E+06 -0.2070006E-02  0.2185822E-02  0.1114160E+00  0.8261108E-01 -0.1192323E-02 -0.4241943E-02 -0.1688860E+07 -0.3046379E+06  0.5458022E-07 -0.1164153E-08
  0.9277027E+00  0.7769972E+06  0.1646674E+06 -0.6184421E-02 -0.6179810E-03  0.9677961E-01  0.9735107E-01  0.1720453E-01  0.1228333E-02 -0.1687058E+07 -0.3150223E+06  0.2208584E-07 -0.9313226E-09
  0.9339832E+00  0.7773693E+06  0.1708125E+06 -0.3675899E-02 -0.9422302E-03  0.7756963E-01  0.6239319E-01  0.1538976E-01 -0.2796173E-02 -0.1685036E+07 -0.3255836E+06  0.1096866E-07  0.2328306E-09
  0.9402639E+00  0.7776122E+06  0.1770973E+06 -0.1247948E-01  0.1274109E-02  0.8360767E-01  0.6446838E-01  0.1832164E-01 -0.3479004E-02 -0.1682797E+07 -0.3363142E+06 -0.3862913E-07 -0.7683411E-08
  0.9465445E+00  0.7778318E+06  0.1835341E+06  0.4433143E-02 -0.1190186E-02  0.8369774E-01  0.8998108E-01 -0.2284278E-01  0.2044678E-02 -0.1680711E+07 -0.3472732E+06 -0.1180702E-07 -0.2328306E-09
  0.9528251E+00  0.7777778E+06  0.1900876E+06  0.9784712E-02 -0.1983643E-02  0.6034173E-01  0.6159973E-01  0.2945022E-01 -0.9460449E-03 -0.1678182E+07 -0.3583655E+06  0.6842030E-08  0.3958121E-08
  0.9591056E+00  0.7775209E+06  0.1967600E+06  0.3802345E-02 -0.8773804E-03  0.7840149E-01  0.5221558E-01 -0.2513684E-01 -0.5798340E-03 -0.1675122E+07 -0.3695581E+06  0.4078336E-07 -0.1164153E-08
  0.9653863E+00  0.7771786E+06  0.2035727E+06 -0.8124228E-02 -0.1754761E-03  0.7883978E-01  0.6684875E-01  0.9325475E-03  0.1670837E-02 -0.1672087E+07 -0.3809434E+06 -0.5595347E-07  0.3026798E-08
  0.9716668E+00  0.7767801E+06  0.2105273E+06 -0.4711118E-03 -0.5416870E-03  0.7971211E-01  0.5862427E-01 -0.8008900E-02 -0.1174164E-01 -0.1669116E+07 -0.3925254E+06  0.2396198E-07  0.1629815E-08
  0.9779475E+00  0.7762242E+06  0.2175996E+06  0.1053194E-01  0.3097534E-02  0.7526825E-01  0.5155945E-01  0.5429799E-02  0.1548767E-02 -0.1665620E+07 -0.4041827E+06  0.1142788E-07  0.6984919E-09
  0.9842281E+00  0.7754608E+06  0.2247819E+06 -0.3813813E-02 -0.2670288E-02  0.7782660E-01  0.6060791E-01 -0.8945407E-02 -0.7164001E-02 -0.1661870E+07 -0.4159581E+06  0.3501113E-07  0.1862645E-08
  0.9905087E+00  0.7746501E+06  0.2321036E+06 -0.9088952E-03 -0.1106262E-02  0.3851251E-01  0.3096008E-01 -0.1538960E-01 -0.2677917E-02 -0.1658296E+07 -0.4279372E+06 -0.1316345E-07 -0.2561137E-08
  0.9967892E+00  0.7735976E+06  0.2394998E+06  0.9858313E-02 -0.2517700E-03  0.6245639E-01  0.4019165E-01  0.2508971E-01  0.3799438E-02 -0.1653927E+07 -0.4398572E+06 -0.1962077E-07  0.3492460E-08
  0.1003070E+01  0.7724200E+06  0.2469833E+06  0.1825451E-03 -0.1113892E-02  0.4326318E-01  0.6001282E-01 -0.1067889E-01 -0.1907349E-03 -0.1648968E+07 -0.4517377E+06 -0.1856944E-07 -0.6053597E-08
  0.1009351E+01  0.7710667E+06  0.2545554E+06 -0.4202644E-02 -0.5493164E-03  0.7002392E-01  0.4734802E-01  0.3718887E-02  0.3273010E-02 -0.1643718E+07 -0.4636621E+06  0.7381555E-08 -0.3259629E-08
  0.1015631E+01  0.7695918E+06  0.2622214E+06  0.1173371E-01 -0.2494812E-02  0.4579300E-01  0.8590698E-02  0.2238569E-02  0.2372742E-02 -0.1638347E+07 -0.4756551E+06  0.2292473E-07  0.7916242E-08
  0.1021912E+01  0.7679772E+06  0.2699796E+06  0.5853191E-02 -0.1220703E-03  0.3834437E-01  0.9735107E-02 -0.2002329E-01 -0.2708435E-02 -0.1632699E+07 -0.4876778E+06  0.3280871E-07  0.2328306E-08
  0.1028192E+01  0.7662848E+06  0.2778357E+06  0.1190201E-01  0.2655029E-02  0.5140717E-01  0.1086426E-01 -0.6871109E-02 -0.7400513E-03 -0.1626967E+07 -0.4997621E+06  0.6340506E-08  0.4656613E-08
  0.1034473E+01  0.7643058E+06  0.2857410E+06  0.4779098E-02 -0.1113892E-02  0.4637495E-01  0.3222656E-01  0.7198148E-02  0.1968384E-02 -0.1620670E+07 -0.5117803E+06 -0.4321378E-07  0.6984919E-08
  0.1040753E+01  0.7620113E+06  0.2936737E+06 -0.6626906E-02 -0.1976013E-02  0.3718105E-01  0.3253174E-01  0.2074574E-01  0.8239746E-03 -0.1613674E+07 -0.5236594E+06  0.3310962E-07  0.2421439E-07
  0.1047034E+01  0.7595356E+06  0.3016628E+06 -0.4794631E-02  0.2746582E-02  0.2920499E-01  0.1654053E-01  0.1949914E-01 -0.1525879E-02 -0.1606297E+07 -0.5354759E+06 -0.8894864E-08  0.4190952E-08
  0.1053315E+01  0.7569821E+06  0.3097292E+06  0.7793707E-02 -0.2944946E-02  0.3557871E-01  0.2941895E-01 -0.2203388E-01  0.9094238E-02 -0.1598877E+07 -0.5473096E+06 -0.2475711E-07 -0.2421439E-07
  0.1059595E+01  0.7543421E+06  0.3178717E+06  0.1843275E-02  0.3448486E-02  0.3980322E-01  0.1010132E-01  0.3758553E-02 -0.4196167E-02 -0.1591532E+07 -0.5591972E+06  0.9668362E-08  0.6519258E-08
  0.1065876E+01  0.7515667E+06  0.3260666E+06  0.1162437E-01 -0.3364563E-02  0.4558127E-01  0.5462646E-01  0.6084184E-02  0.6103516E-03 -0.1584005E+07 -0.5710454E+06  0.8737626E-08  0.2793968E-08
  0.1072156E+01  0.7485002E+06  0.3342442E+06  0.6916691E-02  0.2799988E-02  0.3927997E-01  0.3875732E-02 -0.3472577E-02 -0.2517700E-02 -0.1575625E+07 -0.5826008E+06  0.2605934E-08  0.2887100E-07
  0.1078437E+01  0.7452882E+06  0.3424557E+06  0.5970872E-02 -0.1525879E-03  0.5025719E-01  0.1312256E-01 -0.9324182E-02 -0.3593445E-02 -0.1567056E+07 -0.5940718E+06  0.1727171E-08 -0.4656613E-09
  0.1084718E+01  0.7418920E+06  0.3506850E+06 -0.1800583E-02 -0.1213074E-02  0.2745889E-01  0.1190185E-01 -0.1899053E-01  0.3936768E-02 -0.1558240E+07 -0.6054107E+06 -0.1459594E-07 -0.7916242E-08
  0.1090998E+01  0.7384149E+06  0.3589548E+06 -0.7902137E-02  0.4493713E-02  0.5331495E-01  0.1779175E-01  0.9314731E-02  0.9338379E-02 -0.1549459E+07 -0.6167174E+06 -0.5975499E-08  0.1816079E-07
  0.1097279E+01  0.7347046E+06  0.3672075E+06  0.6897388E-02  0.3021240E-02  0.5929529E-01  0.3924561E-01 -0.7175509E-02  0.6477356E-02 -0.1540359E+07 -0.6278633E+06 -0.8487565E-09  0.7450581E-08
  0.1103559E+01  0.7307782E+06  0.3754332E+06  0.4701143E-02 -0.2716064E-02  0.3760914E-01  0.1266479E-01 -0.6899618E-02 -0.4730225E-03 -0.1530906E+07 -0.6387882E+06 -0.1603460E-07 -0.4656613E-09
  0.1109840E+01  0.7266252E+06  0.3836163E+06 -0.1704831E-02 -0.1602173E-02  0.4911014E-01  0.7904053E-02  0.4179586E-02 -0.6759644E-02 -0.1521036E+07 -0.6494453E+06 -0.2517451E-08 -0.9313226E-08
  0.1116121E+01  0.7223945E+06  0.3918126E+06 -0.7724266E-02 -0.1647949E-02  0.4363868E-01  0.3460693E-01  0.2151858E-01 -0.2059937E-02 -0.1511332E+07 -0.6600771E+06 -0.1418527E-07 -0.1396984E-08
  0.1122401E+01  0.7180746E+06  0.4000004E+06  0.9720264E-02 -0.1647949E-02  0.2419870E-01  0.1751709E-01 -0.1394824E-01 -0.7911682E-02 -0.1501661E+07 -0.6705998E+06  0.4978555E-08  0.2328306E-08
  0.1128682E+01  0.7135703E+06  0.4081253E+06 -0.1192387E-01  0.1647949E-02  0.3168882E-01  0.9643555E-02  0.9693210E-02 -0.4318237E-02 -0.1491466E+07 -0.6807519E+06 -0.5775992E-08 -0.7916242E-08
  0.1134963E+01  0.7088660E+06  0.4161821E+06 -0.4987837E-02  0.1647949E-02  0.3258900E-01  0.2987671E-01 -0.5404611E-02  0.7232666E-02 -0.1481079E+07 -0.6906589E+06 -0.1230863E-07  0.2281740E-07
  0.1141243E+01  0.7040851E+06  0.4242185E+06  0.3088545E-02 -0.2456665E-02  0.2706154E-01  0.1635742E-01  0.1132466E-01  0.2136230E-02 -0.1470876E+07 -0.7005003E+06 -0.4896359E-08  0.1303852E-07
  0.1147524E+01  0.6991432E+06  0.4321711E+06 -0.5744365E-02 -0.5096436E-02  0.1686078E-01  0.2566528E-01 -0.2792400E-03  0.1021576E-01 -0.1460454E+07 -0.7100289E+06 -0.1460868E-07 -0.1350418E-07
  0.1153804E+01  0.6940591E+06  0.4400002E+06 -0.8014210E-02 -0.3784180E-02  0.2729592E-01  0.3558350E-01 -0.3028472E-02  0.4966736E-02 -0.1449621E+07 -0.7190636E+06 -0.2421527E-08  0.6984919E-08
  0.1160085E+01  0.6888262E+06  0.4477075E+06  0.5484870E-02  0.3158569E-02  0.2578020E-01  0.7629395E-03 -0.1054884E-01  0.1220703E-03 -0.1438408E+07 -0.7276462E+06  0.1766172E-07 -0.1490116E-07
  0.1166366E+01  0.6834759E+06  0.4553239E+06 -0.9929491E-02  0.0000000E+00  0.3657820E-01  0.2096558E-01  0.5102110E-03  0.3677368E-02 -0.1427272E+07 -0.7360196E+06  0.8783305E-08 -0.1862645E-08
  0.1172646E+01  0.6780350E+06  0.4628422E+06 -0.3773559E-03 -0.2899170E-03  0.4528271E-01  0.3503418E-01 -0.3362371E-01 -0.7629395E-04 -0.1416143E+07 -0.7441218E+06 -0.3573927E-07 -0.6519258E-08
  0.1178927E+01  0.6724888E+06  0.4702549E+06  0.1119565E-01 -0.4516602E-02  0.2355616E-01  0.3771973E-01  0.8167000E-02 -0.6675720E-02 -0.1404897E+07 -0.7518711E+06  0.2369924E-07  0.2793968E-08
  0.1185207E+01  0.6669018E+06  0.4775743E+06 -0.1187017E-01  0.1327515E-02  0.1673668E-01  0.3997803E-01  0.1310610E-01  0.5256653E-02 -0.1393719E+07 -0.7593563E+06  0.1728736E-07 -0.1490116E-07
  0.1191488E+01  0.6612328E+06  0.4847877E+06 -0.3585820E-03  0.4180908E-02 -0.1485554E-02  0.7995605E-02  0.2804623E-02  0.5355835E-02 -0.1382646E+07 -0.7666132E+06  0.2813928E-07  0.9313226E-09
  0.1197769E+01  0.6552379E+06  0.4917273E+06 -0.7172249E-02 -0.8087158E-03  0.1442093E-01  0.1489258E-01  0.1490503E-01  0.2445984E-01 -0.1370854E+07 -0.7730851E+06  0.1477341E-07 -0.1769513E-07
  0.1204049E+01  0.6491231E+06  0.4985068E+06  0.4473533E-02  0.1037598E-02 -0.3244262E-02  0.3408813E-01 -0.1757731E-01  0.8468628E-03 -0.1358957E+07 -0.7791329E+06  0.5414446E-08  0.1862645E-07
  0.1210330E+01  0.6429468E+06  0.5051475E+06  0.1031263E-01 -0.6774902E-02  0.2102869E-01  0.1748657E-01 -0.7929886E-02  0.5218506E-02 -0.1347035E+07 -0.7847955E+06  0.3077913E-08 -0.9313226E-08
  0.1216610E+01  0.6367622E+06  0.5116790E+06 -0.1818598E-02  0.1785278E-02  0.5317831E-02  0.2188110E-01 -0.1138819E-01 -0.2067566E-02 -0.1335325E+07 -0.7902307E+06 -0.8420569E-08 -0.1303852E-07
  0.1222891E+01  0.6305644E+06  0.5180992E+06 -0.4354695E-02  0.2380371E-02  0.3244186E-02 -0.1861572E-02  0.2284655E-01  0.9880066E-02 -0.1323853E+07 -0.7954628E+06  0.9138894E-08 -0.2793968E-08
  0.1229172E+01  0.6243559E+06  0.5243941E+06 -0.1986220E-03  0.7125854E-02 -0.7448326E-02  0.9368896E-02  0.1772702E-01 -0.5905151E-02 -0.1312560E+07 -0.8004334E+06  0.3864183E-07  0.1303852E-07
  0.1235452E+01  0.6179665E+06  0.5304095E+06  0.3878143E-02 -0.4577637E-03  0.2480035E-01 -0.1922607E-02 -0.5310833E-02  0.7804871E-02 -0.1300705E+07 -0.8045702E+06  0.1507663E-07  0.1862645E-07
  0.1241733E+01  0.6115536E+06  0.5362672E+06 -0.1153872E-01  0.1068115E-02  0.1523749E-02  0.1580811E-01  0.1893627E-01  0.5645752E-02 -0.1288933E+07 -0.8083404E+06 -0.1575039E-07  0.2887100E-07
  0.1248013E+01  0.6050622E+06  0.5419272E+06  0.3264467E-02  0.2380371E-02  0.3247349E-01  0.3158569E-01  0.1542980E-01 -0.7301331E-02 -0.1277162E+07 -0.8116538E+06  0.0000000E+00  0.1117587E-07
  0.1254294E+01  0.5985598E+06  0.5474367E+06 -0.1824786E-02 -0.2426147E-02  0.1844251E-01  0.1959229E-01 -0.2554700E-03 -0.5638123E-02 -0.1265562E+07 -0.8146436E+06  0.1188012E-07  0.4656613E-08
  0.1260575E+01  0.5920852E+06  0.5528104E+06 -0.7928530E-02 -0.1785278E-02  0.1496132E-01  0.1708984E-01  0.1008315E-01  0.2822876E-03 -0.1254252E+07 -0.8174316E+06  0.7388077E-09  0.3539026E-07
  0.1266855E+01  0.5855002E+06  0.5579412E+06  0.4661269E-02  0.2700806E-02  0.2293296E-01  0.2352905E-01  0.9876589E-02 -0.8125305E-02 -0.1242870E+07 -0.8197208E+06  0.3087611E-07  0.3725290E-08
  0.1273136E+01  0.5788753E+06  0.5628708E+06  0.1078668E-03  0.6134033E-02  0.1246461E-02  0.1660156E-01 -0.1004360E-01 -0.7431030E-02 -0.1231564E+07 -0.8215880E+06  0.2926074E-08  0.5587935E-08
  0.1279416E+01  0.5721581E+06  0.5675273E+06  0.2910034E-02 -0.4638672E-02  0.1402541E-01  0.8148193E-02 -0.5426499E-02  0.4730225E-03 -0.1220094E+07 -0.8227946E+06 -0.1747027E-07  0.1117587E-07
  0.1285697E+01  0.5655049E+06  0.5720383E+06  0.5340648E-02 -0.4333496E-02  0.2440083E-01  0.1599121E-01  0.1757667E-01  0.2372742E-02 -0.1208989E+07 -0.8238187E+06  0.7968089E-08  0.2421439E-07
  0.1291978E+01  0.5589230E+06  0.5763889E+06  0.5078476E-03 -0.3997803E-02 -0.3236052E-02  0.5096436E-02  0.6684692E-02 -0.1525879E-04 -0.1198197E+07 -0.8246152E+06  0.2811316E-07 -0.1490116E-07
  0.1298258E+01  0.5523814E+06  0.5805462E+06 -0.1774745E-02 -0.8697510E-03 -0.5947160E-02  0.6042480E-02  0.1621953E-02  0.6141663E-02 -0.1187529E+07 -0.8249878E+06 -0.1362990E-07  0.8381903E-08
  0.1304539E+01  0.5458374E+06  0.5844754E+06 -0.2994353E-02 -0.9765625E-03  0.1497176E-01  0.1327515E-01  0.1750995E-01 -0.1381683E-01 -0.1176786E+07 -0.8247604E+06 -0.1142255E-07  0.6519258E-08
  0.1310819E+01  0.5392721E+06  0.5881684E+06  0.6402359E-03  0.3250122E-02  0.7450018E-02  0.1867676E-01 -0.4656261E-04  0.2281189E-02 -0.1166173E+07 -0.8241227E+06  0.8525869E-08 -0.1583248E-07
  0.1317100E+01  0.5327836E+06  0.5917258E+06  0.1656675E-02 -0.9948730E-02 -0.2557999E-01  0.3479004E-02  0.6615115E-02  0.6408691E-02 -0.1155970E+07 -0.8234098E+06 -0.1131361E-07 -0.1955777E-07
  0.1323381E+01  0.5263311E+06  0.5950839E+06 -0.1694933E-02  0.1632690E-02 -0.8255592E-02  0.1776123E-01  0.4047085E-02 -0.7888794E-02 -0.1145972E+07 -0.8223553E+06 -0.4926214E-08  0.8381903E-08
  0.1329661E+01  0.5198564E+06  0.5981719E+06 -0.2547605E-02  0.3662109E-03 -0.6495245E-02  0.1885986E-01  0.1847588E-02  0.1602173E-02 -0.1135906E+07 -0.8206322E+06  0.1400842E-08  0.2421439E-07
  0.1335942E+01  0.5134328E+06  0.6010582E+06  0.4397372E-02  0.1098633E-02 -0.1669859E-01  0.2807617E-01  0.4340263E-03  0.9048462E-02 -0.1125989E+07 -0.8185034E+06  0.2091384E-08 -0.2793968E-08
  0.1342222E+01  0.5070220E+06  0.6037112E+06  0.8901383E-02 -0.7934570E-03 -0.1605205E-01  0.2099609E-01  0.1072031E-01  0.2258301E-02 -0.1116170E+07 -0.8159472E+06  0.2220372E-07 -0.4656613E-08
  0.1348503E+01  0.5006783E+06  0.6062031E+06  0.5883984E-03 -0.1037598E-01 -0.1136061E-01  0.2783203E-01  0.1073827E-01 -0.3623962E-02 -0.1106702E+07 -0.8132528E+06  0.1381269E-07  0.4842877E-07
  0.1354784E+01  0.4943810E+06  0.6085045E+06  0.2984667E-02 -0.7629395E-03 -0.3342827E-01  0.5706787E-02  0.1091374E-01  0.1336670E-01 -0.1097496E+07 -0.8103003E+06  0.2062297E-08 -0.1210719E-07
  0.1361064E+01  0.4881517E+06  0.6106194E+06  0.2186131E-02  0.2044678E-02 -0.3443997E-01  0.3067017E-01  0.9652608E-02 -0.2044678E-02 -0.1088472E+07 -0.8069767E+06 -0.4789825E-08  0.4097819E-07
  0.1367345E+01  0.4820164E+06  0.6125844E+06 -0.1629277E-02  0.1892090E-02 -0.3151423E-01  0.2740479E-01  0.1048986E-02  0.6027222E-03 -0.1079760E+07 -0.8034778E+06 -0.8854528E-08  0.9313226E-08
  0.1373626E+01  0.4759877E+06  0.6144208E+06  0.2999268E-02 -0.4943848E-02 -0.3057032E-01  0.3253174E-01 -0.1839551E-01 -0.8308411E-02 -0.1071435E+07 -0.7999281E+06  0.6780030E-08 -0.1396984E-07
  0.1379906E+01  0.4698552E+06  0.6158727E+06 -0.8182806E-03 -0.2929688E-02 -0.3266488E-01  0.2951050E-01 -0.9332823E-02 -0.6835938E-02 -0.1062886E+07 -0.7955123E+06 -0.4724422E-08  0.1303852E-07
  0.1386187E+01  0.4637567E+06  0.6171022E+06 -0.6857824E-02  0.7080078E-02 -0.2256587E-01  0.3247070E-01 -0.6802785E-02  0.2670288E-02 -0.1054498E+07 -0.7907256E+06  0.0000000E+00 -0.5867332E-07
  0.1392467E+01  0.4577100E+06  0.6181080E+06  0.4931143E-03 -0.2593994E-02 -0.2752674E-01  0.2651978E-01 -0.1336888E-02 -0.2021790E-02 -0.1046191E+07 -0.7854322E+06 -0.1404541E-07  0.5587935E-08
  0.1398748E+01  0.4517669E+06  0.6189719E+06 -0.1461791E-02  0.1220703E-03 -0.3667569E-01  0.5014038E-01 -0.1517427E-01 -0.9704590E-02 -0.1038202E+07 -0.7799992E+06 -0.2463556E-07 -0.9313226E-08
  0.1405028E+01  0.4459485E+06  0.6197223E+06  0.1737621E-03  0.1403809E-02 -0.5393142E-01  0.4183960E-01  0.1563859E-02 -0.4608154E-02 -0.1030606E+07 -0.7745482E+06 -0.6628498E-09 -0.3725290E-08
  0.1411309E+01  0.4402719E+06  0.6203613E+06  0.6995234E-02 -0.1220703E-02 -0.4692321E-01  0.2291870E-01  0.2594832E-03 -0.4386902E-02 -0.1023396E+07 -0.7690712E+06 -0.2639599E-07 -0.1862645E-08
  0.1417590E+01  0.4347229E+06  0.6208812E+06  0.4757641E-02 -0.6958008E-02 -0.8445352E-01  0.1348877E-01 -0.1184028E-02 -0.2487183E-02 -0.1016520E+07 -0.7635164E+06 -0.2365113E-07 -0.6705523E-07
  0.1423870E+01  0.4292190E+06  0.6211440E+06 -0.3214926E-02 -0.6103516E-02 -0.7152139E-01  0.2359009E-01  0.3525702E-02 -0.1333618E-01 -0.1009610E+07 -0.7573106E+06  0.1046525E-07  0.1583248E-07
  0.1430151E+01  0.4237826E+06  0.6211974E+06  0.2400605E-02 -0.1037598E-02 -0.7718211E-01  0.1666260E-01 -0.4587823E-03  0.1174927E-02 -0.1002773E+07 -0.7506368E+06 -0.1953617E-08  0.4656613E-08
  0.1436431E+01  0.4184616E+06  0.6211228E+06 -0.2113919E-02  0.4882812E-03 -0.7599486E-01  0.1235962E-01  0.3016849E-02  0.8407593E-02 -0.9962186E+06 -0.7438409E+06  0.2593435E-08 -0.9313226E-09
  0.1442712E+01  0.4131924E+06  0.6208479E+06  0.1015340E-02  0.4180908E-02 -0.8719236E-01  0.2749634E-01 -0.1787422E-02 -0.6500244E-02 -0.9898418E+06 -0.7367201E+06 -0.1291072E-07  0.1024455E-07
  0.1448993E+01  0.4080571E+06  0.6204879E+06 -0.7371431E-04  0.2380371E-02 -0.7013390E-01  0.1046753E-01 -0.4907267E-02 -0.1327515E-02 -0.9838044E+06 -0.7295909E+06 -0.1928213E-08 -0.6519258E-08
  0.1455273E+01  0.4030486E+06  0.6200424E+06  0.2464016E-02  0.3082275E-02 -0.6765033E-01  0.1702881E-01 -0.2138975E-02 -0.1167297E-02 -0.9781139E+06 -0.7225582E+06  0.1279928E-08 -0.1769513E-07
  0.1461554E+01  0.3980832E+06  0.6193925E+06  0.1472056E-02  0.6774902E-02 -0.5961305E-01  0.8117676E-02 -0.6994876E-02  0.3486633E-02 -0.9725399E+06 -0.7152081E+06  0.9558209E-09 -0.1303852E-07
  0.1467834E+01  0.3931922E+06  0.6185824E+06  0.8326752E-02 -0.3417969E-02 -0.6655165E-01  0.2111816E-01  0.1217307E-01 -0.7499695E-02 -0.9671598E+06 -0.7076432E+06 -0.3806926E-08  0.1862645E-07