VARIABLES="w (rad/s)"
"abs(F   1   1)" "angle(F   1   1)"
"abs(F   1   2)" "angle(F   1   2)"
"abs(F   1   3)" "angle(F   1   3)"
"abs(F   1   4)" "angle(F   1   4)"
"abs(F   1   5)" "angle(F   1   5)"
"abs(F   1   6)" "angle(F   1   6)"
Zone t="Diffraction force - beta =   0.000 deg",I=   300,F=POINT
  0.2000000E-01  0.2392872E+03 -0.1570796E+01  0.6152005E-05  0.5238028E+00  0.1126265E+03 -0.3141137E+01  0.4444871E-04  0.3026011E+01  0.5806656E+03  0.1570796E+01  0.6143299E-11  0.1533776E+01
  0.4000000E-01  0.9569137E+03 -0.1570796E+01  0.4408375E-04 -0.1029396E+00  0.4509629E+03 -0.3139776E+01  0.5087847E-04 -0.2482861E+01  0.2321544E+04  0.1570796E+01  0.1733417E-10  0.1649580E+01
  0.6000000E-01  0.2150573E+04 -0.1570796E+01  0.6277586E-05 -0.1729311E+01  0.1018462E+04 -0.3137545E+01  0.4602139E-03 -0.3003872E+01  0.5205589E+04  0.1570796E+01  0.1364250E-09 -0.1567463E+01
  0.8000000E-01  0.3823399E+04 -0.1570796E+01  0.1312568E-03  0.1834499E+01  0.1824713E+04 -0.3134506E+01  0.6441735E-03 -0.2997864E+01  0.9264909E+04  0.1570796E+01  0.5583586E-10 -0.1784165E+01
  0.9999999E-01  0.5993389E+04 -0.1570795E+01  0.1667823E-03 -0.2717272E+01  0.2844908E+04 -0.3130604E+01  0.1169787E-02 -0.6077038E+00  0.1454314E+05  0.1570797E+01  0.8151528E-10  0.1379965E+01
  0.1200000E+00  0.8655157E+04 -0.1570794E+01  0.4140553E-03 -0.2671926E+01  0.4095809E+04 -0.3125957E+01  0.1336704E-02  0.3773930E+00  0.2095779E+05  0.1570799E+01  0.1455305E-09 -0.1583296E+01
  0.1400000E+00  0.1178751E+05 -0.1570790E+01  0.3016239E-03 -0.3560646E+00  0.5570067E+04 -0.3120592E+01  0.1934752E-02  0.2788389E+01  0.2847741E+05  0.1570803E+01  0.6566753E-09  0.1645656E+01
  0.1600000E+00  0.1538187E+05 -0.1570782E+01  0.8019938E-03  0.2412877E+01  0.7255771E+04 -0.3114537E+01  0.1866283E-02  0.2218005E+00  0.3714282E+05  0.1570810E+01  0.6694276E-09  0.1581666E+01
  0.1800000E+00  0.1945422E+05 -0.1570768E+01  0.1104120E-02 -0.2995970E+01  0.9149930E+04 -0.3107859E+01  0.3289397E-02 -0.2491191E+01  0.4679608E+05  0.1570824E+01  0.5384209E-09  0.1570796E+01
  0.2000000E+00  0.2395676E+05 -0.1570744E+01  0.1623047E-02  0.2369334E+01  0.1125823E+05 -0.3100663E+01  0.4270074E-02 -0.1632027E+00  0.5764125E+05  0.1570849E+01  0.1222707E-08 -0.1546991E+01
  0.2200000E+00  0.2895276E+05 -0.1570704E+01  0.7862210E-03 -0.1695603E+01  0.1357330E+05 -0.3093014E+01  0.1437424E-01  0.3073934E+01  0.6943631E+05  0.1570888E+01  0.1077456E-08  0.1537025E+01
  0.2400000E+00  0.3438736E+05 -0.1570642E+01  0.3988599E-02 -0.4488909E+00  0.1601110E+05 -0.3084697E+01  0.3945924E-02  0.2974537E+01  0.8226112E+05  0.1570949E+01  0.9449785E-09  0.1741008E+01
  0.2600000E+00  0.4025232E+05 -0.1570549E+01  0.1509679E-02  0.2796880E+00  0.1868742E+05 -0.3076245E+01  0.2173693E-01 -0.2850203E+01  0.9623525E+05  0.1571041E+01  0.2153880E-08  0.1557284E+01
  0.2800000E+00  0.4661203E+05 -0.1570415E+01  0.3256800E-02 -0.1299395E+01  0.2144241E+05 -0.3067171E+01  0.1134630E-01  0.3913385E+00  0.1109668E+06  0.1571174E+01  0.2154126E-08  0.1591064E+01
  0.3000000E+00  0.5336708E+05 -0.1570227E+01  0.3670688E-02 -0.4262142E-01  0.2441995E+05 -0.3058119E+01  0.3100899E-01 -0.4143335E+00  0.1267264E+06  0.1571360E+01  0.6077058E-09  0.1862253E+01
  0.3200000E+00  0.6052637E+05 -0.1569968E+01  0.9950287E-02 -0.1477236E+01  0.2741983E+05 -0.3048461E+01  0.4435487E-01  0.3033101E+01  0.1436090E+06  0.1571615E+01  0.2621325E-08  0.1531927E+01
  0.3400000E+00  0.6817826E+05 -0.1569622E+01  0.7653761E-02  0.2415789E+00  0.3065849E+05 -0.3039096E+01  0.2934118E-01  0.2607030E-01  0.1611651E+06  0.1571958E+01  0.1457809E-08  0.1630724E+01
  0.3600000E+00  0.7626523E+05 -0.1569166E+01  0.6452002E-02 -0.2849832E+01  0.3382361E+05 -0.3029009E+01  0.1099149E-01 -0.2113061E+01  0.1794564E+06  0.1572410E+01  0.3397179E-09  0.2386488E+01
  0.3800000E+00  0.8473977E+05 -0.1568577E+01  0.8836686E-02  0.2239717E+00  0.3713411E+05 -0.3019089E+01  0.1704541E-01  0.8488189E+00  0.1988094E+06  0.1572992E+01  0.7039277E-09  0.1446441E+01
  0.4000000E+00  0.9357304E+05 -0.1567826E+01  0.8141619E-02  0.3077358E+01  0.4055100E+05 -0.3009323E+01  0.1919811E-01 -0.1311167E+01  0.2191495E+06  0.1573732E+01  0.2815711E-08 -0.1695151E+01
  0.4200000E+00  0.1029187E+06 -0.1566885E+01  0.1150169E-01  0.2828207E+01  0.4385496E+05 -0.2999004E+01  0.1622242E-01  0.1605841E+01  0.2399747E+06  0.1574664E+01  0.4737760E-09  0.2312744E+01
  0.4400000E+00  0.1126847E+06 -0.1565720E+01  0.4965981E-02 -0.5532150E+00  0.4726743E+05 -0.2989033E+01  0.4931898E-01  0.2655321E+01  0.2614286E+06  0.1575818E+01  0.4231180E-08 -0.1708802E+01
  0.4600000E+00  0.1228301E+06 -0.1564293E+01  0.1243972E-01 -0.2303099E+01  0.5073484E+05 -0.2979336E+01  0.8201474E-01  0.1531585E+00  0.2836188E+06  0.1577231E+01  0.3038111E-08 -0.1657120E+01
  0.4800000E+00  0.1333286E+06 -0.1562564E+01  0.3423288E-02 -0.3103696E+01  0.5399218E+05 -0.2969038E+01  0.4332274E-01 -0.2877820E+01  0.3066324E+06  0.1578940E+01  0.1194321E-08 -0.2390664E+01
  0.5000000E+00  0.1442266E+06 -0.1560492E+01  0.1693939E-01 -0.1005609E+01  0.5728689E+05 -0.2959092E+01  0.3414508E-01  0.2107154E+01  0.3307011E+06  0.1580980E+01  0.5127563E-08  0.1616220E+01
  0.5200000E+00  0.1555469E+06 -0.1558034E+01  0.1685547E-01 -0.2095564E+01  0.6066196E+05 -0.2949754E+01  0.3394461E-01 -0.1657437E+01  0.3549548E+06  0.1583408E+01  0.4205478E-08  0.1653938E+01
  0.5400000E+00  0.1673136E+06 -0.1555143E+01  0.2238429E-01  0.1615674E+01  0.6378491E+05 -0.2939953E+01  0.8553214E-01 -0.3129149E+01  0.3794475E+06  0.1586272E+01  0.1455192E-08  0.2214298E+01
  0.5600000E+00  0.1795095E+06 -0.1551771E+01  0.1825015E-01 -0.2077083E+01  0.6677608E+05 -0.2930111E+01  0.3330093E-01 -0.2887119E-01  0.4045659E+06  0.1589613E+01  0.2577620E-08  0.1127348E+01
  0.5800000E+00  0.1920861E+06 -0.1547864E+01  0.2175229E-01 -0.1691127E+01  0.6974562E+05 -0.2920701E+01  0.6876208E-01 -0.5862178E+00  0.4303276E+06  0.1593481E+01  0.2328306E-09  0.0000000E+00
  0.6000000E+00  0.2048489E+06 -0.1543356E+01  0.3614027E-01 -0.2138078E+01  0.7273417E+05 -0.2911937E+01  0.8228356E-01 -0.6505851E+00  0.4564547E+06  0.1597932E+01  0.4205478E-08  0.1487655E+01
  0.6199999E+00  0.2179774E+06 -0.1538206E+01  0.1047452E-01  0.2300864E+01  0.7541770E+05 -0.2902798E+01  0.7044805E-01  0.2316057E+01  0.4832472E+06  0.1603005E+01  0.6550625E-08 -0.1472896E+01
  0.6400000E+00  0.2314810E+06 -0.1532367E+01  0.2056036E-01 -0.2961391E+01  0.7787322E+05 -0.2893509E+01  0.7351940E-01  0.2840912E+01  0.5102550E+06  0.1608759E+01  0.7465118E-08 -0.1633215E+01
  0.6600000E+00  0.2454640E+06 -0.1525800E+01  0.1149803E-01 -0.6024497E+00  0.8024933E+05 -0.2884592E+01  0.6128201E-01 -0.2156624E+01  0.5371779E+06  0.1615255E+01  0.7091070E-08 -0.1397551E+01
  0.6799999E+00  0.2597033E+06 -0.1518429E+01  0.3135427E-01 -0.1755188E+01  0.8256841E+05 -0.2876198E+01  0.8225033E-01 -0.1909003E+01  0.5640192E+06  0.1622551E+01  0.1895104E-08  0.1385448E+01
  0.7000000E+00  0.2742441E+06 -0.1510205E+01  0.7520088E-02 -0.1711007E+01  0.8486919E+05 -0.2868488E+01  0.7794423E-01 -0.1409075E+01  0.5908739E+06  0.1630696E+01  0.1320583E-07 -0.1730148E+01
  0.7200000E+00  0.2889811E+06 -0.1501068E+01  0.4993846E-02  0.2579228E+01  0.8659507E+05 -0.2859787E+01  0.6597321E-01  0.1854322E+01  0.6175500E+06  0.1639746E+01  0.4303038E-08 -0.2094976E+01
  0.7399999E+00  0.3039488E+06 -0.1490974E+01  0.1678684E-01 -0.1696222E+01  0.8819728E+05 -0.2851377E+01  0.9187017E-01 -0.5966629E+00  0.6443377E+06  0.1649731E+01  0.7755611E-08  0.1852189E+01
  0.7600000E+00  0.3190405E+06 -0.1479868E+01  0.4409876E-01 -0.2023844E+01  0.8967953E+05 -0.2843279E+01  0.6763526E-01  0.2581594E+01  0.6710062E+06  0.1660698E+01  0.1400484E-07  0.1641512E+01
  0.7800000E+00  0.3341576E+06 -0.1467696E+01  0.1067448E-01  0.1383846E+00  0.9106501E+05 -0.2835589E+01  0.6039608E-01  0.2651390E+01  0.6977351E+06  0.1672663E+01  0.1164866E-07  0.1535811E+01
  0.8000000E+00  0.3492806E+06 -0.1454454E+01  0.3739006E-01  0.1552839E+01  0.9238396E+05 -0.2828418E+01  0.1105411E+00  0.1816980E+01  0.7236627E+06  0.1685674E+01  0.1075204E-07 -0.8275188E+00
  0.8200000E+00  0.3646035E+06 -0.1440189E+01  0.5818751E-01  0.1273418E+01  0.9333127E+05 -0.2821084E+01  0.1909629E+00  0.9157863E-01  0.7481825E+06  0.1699765E+01  0.6136148E-08  0.2389739E+01
  0.8400000E+00  0.3797909E+06 -0.1424793E+01  0.6656856E-01 -0.9995621E+00  0.9392580E+05 -0.2813498E+01  0.6087952E-01  0.1955957E+01  0.7714345E+06  0.1714994E+01  0.7897602E-08 -0.1232730E+01
  0.8600000E+00  0.3949787E+06 -0.1408277E+01  0.1940992E-01 -0.4734478E+00  0.9437270E+05 -0.2806088E+01  0.1139186E+00  0.1546148E+01  0.7938181E+06  0.1731347E+01  0.2378643E-07 -0.1514483E+01
  0.8800001E+00  0.4098613E+06 -0.1390585E+01  0.2865490E-01  0.1023881E+01  0.9469312E+05 -0.2798959E+01  0.1189751E+00  0.7590050E+00  0.8145769E+06  0.1748888E+01  0.1099878E-07  0.1341221E+01
  0.9000000E+00  0.4243896E+06 -0.1371706E+01  0.2424767E-01 -0.3082405E+01  0.9490549E+05 -0.2792122E+01  0.8453983E-01  0.1906845E+01  0.8342824E+06  0.1767560E+01  0.2453713E-08  0.3893167E+00
  0.9200000E+00  0.4383058E+06 -0.1351606E+01  0.4995282E-01 -0.1766840E+01  0.9503741E+05 -0.2785652E+01  0.4490722E-01 -0.2953260E+01  0.8520813E+06  0.1787420E+01  0.6706018E-08 -0.1807354E+01
  0.9399999E+00  0.4516887E+06 -0.1330350E+01  0.2570637E-01  0.2747418E+01  0.9494330E+05 -0.2779391E+01  0.3607728E-01 -0.1858769E+01  0.8679822E+06  0.1808413E+01  0.1581460E-07 -0.1912335E+01
  0.9600000E+00  0.4643116E+06 -0.1307910E+01  0.2709614E-01 -0.1256892E+01  0.9437902E+05 -0.2772822E+01  0.3409474E-01  0.1211816E+01  0.8821051E+06  0.1830502E+01  0.2324274E-07  0.1848580E+01
  0.9800000E+00  0.4761490E+06 -0.1284347E+01  0.7063270E-01  0.1934611E+01  0.9369086E+05 -0.2766383E+01  0.2957722E-01  0.1219513E+01  0.8943922E+06  0.1853629E+01  0.2235174E-07  0.1570796E+01
  0.9999999E+00  0.4871023E+06 -0.1259770E+01  0.3999011E-01  0.1974609E+01  0.9287448E+05 -0.2760003E+01  0.1210178E+00 -0.2470475E+01  0.9044405E+06  0.1877697E+01  0.6741558E-08  0.7625014E+00
  0.1020000E+01  0.4970756E+06 -0.1234411E+01  0.9881929E-01 -0.1430954E+01  0.9195487E+05 -0.2753848E+01  0.6435298E-01  0.1944082E+01  0.9110421E+06  0.1902613E+01  0.1980129E-07  0.1727790E+01
  0.1040000E+01  0.5059468E+06 -0.1208215E+01  0.4391960E-01 -0.1877495E+01  0.9094589E+05 -0.2747871E+01  0.4081639E-01 -0.2879726E+01  0.9149011E+06  0.1928349E+01  0.2482944E-07  0.2021338E+01
  0.1060000E+01  0.5134341E+06 -0.1181180E+01  0.2489781E-01  0.1984575E+01  0.8987005E+05 -0.2742090E+01  0.1542285E+00 -0.1412406E+01  0.9153684E+06  0.1954917E+01  0.1488026E-07  0.2888550E+01
  0.1080000E+01  0.5196886E+06 -0.1153470E+01  0.7906286E-01 -0.1645531E+01  0.8871725E+05 -0.2736584E+01  0.1203111E+00  0.1385682E+01  0.9129658E+06  0.1982136E+01  0.1956332E-07 -0.2474287E+01
  0.1100000E+01  0.5245263E+06 -0.1125101E+01  0.3147557E-01 -0.9048237E+00  0.8707570E+05 -0.2731262E+01  0.1234307E+00  0.1583530E+01  0.9075802E+06  0.2009971E+01  0.1608386E-07  0.1184914E+01
  0.1120000E+01  0.5277163E+06 -0.1096130E+01  0.5984329E-01  0.1526256E+01  0.8537063E+05 -0.2726082E+01  0.8441128E-01 -0.8802242E+00  0.8990217E+06  0.2038357E+01  0.5837332E-08 -0.1864163E+01
  0.1140000E+01  0.5294827E+06 -0.1066757E+01  0.3736940E-01 -0.2533572E+01  0.8357484E+05 -0.2720887E+01  0.4838429E-01  0.2914150E+01  0.8880289E+06  0.2067023E+01  0.1223760E-07 -0.2149564E+01
  0.1160000E+01  0.5296779E+06 -0.1037208E+01  0.1154863E+00 -0.1523362E+01  0.8170377E+05 -0.2715752E+01  0.2424657E+00 -0.1440966E+01  0.8737998E+06  0.2095881E+01  0.2257167E-07 -0.1710505E+01
  0.1180000E+01  0.5283129E+06 -0.1007640E+01  0.8234040E-01  0.1175927E+01  0.7978710E+05 -0.2710767E+01  0.7928600E-01 -0.9549540E+00  0.8567879E+06  0.2124699E+01  0.3115497E-07  0.1866548E+01
  0.1200000E+01  0.5253547E+06 -0.9780735E+00  0.2365821E-01 -0.1959162E+01  0.7782789E+05 -0.2705884E+01  0.3425881E-01  0.5179031E+00  0.8371154E+06  0.2153474E+01  0.2891603E-07 -0.1831399E+01
  0.1220000E+01  0.5206293E+06 -0.9485291E+00  0.3466408E-01  0.3197148E+00  0.7584795E+05 -0.2701075E+01  0.2873609E-01 -0.1521925E+01  0.8143135E+06  0.2182191E+01  0.1912651E-07 -0.2248389E+01
  0.1240000E+01  0.5145882E+06 -0.9192221E+00  0.5683231E-01 -0.1941917E+01  0.7384985E+05 -0.2696365E+01  0.1588037E-01  0.8754992E-01  0.7898124E+06  0.2210567E+01  0.1645208E-07  0.4699766E+00
  0.1260000E+01  0.5070463E+06 -0.8901914E+00  0.6314287E-01 -0.8700401E+00  0.7162721E+05 -0.2692408E+01  0.9605805E-01 -0.1233241E+01  0.7628893E+06  0.2238615E+01  0.2295744E-07 -0.1340577E+01
  0.1280000E+01  0.4979583E+06 -0.8613929E+00  0.6118522E-01  0.1608400E+01  0.6932838E+05 -0.2688648E+01  0.9090062E-01 -0.1095888E+01  0.7341241E+06  0.2266295E+01  0.3015045E-07 -0.2394427E+01
  0.1300000E+01  0.4877319E+06 -0.8332263E+00  0.2910148E-01  0.1657682E+01  0.6701034E+05 -0.2685045E+01  0.4505431E-01 -0.2969373E+01  0.7041759E+06  0.2293319E+01  0.7454218E-08  0.2466852E+01
  0.1320000E+01  0.4763921E+06 -0.8057321E+00  0.1232219E+00 -0.1860480E+01  0.6465794E+05 -0.2681417E+01  0.3319857E-01  0.3011266E+01  0.6731329E+06  0.2319572E+01  0.1938516E-07  0.1150133E+01
  0.1340000E+01  0.4638810E+06 -0.7789146E+00  0.7301591E-01  0.1034351E+01  0.6230992E+05 -0.2677921E+01  0.4336991E-01 -0.2118011E+01  0.6405805E+06  0.2345202E+01  0.1962453E-07  0.2802958E+01
  0.1360000E+01  0.4503587E+06 -0.7526745E+00  0.7289418E-01  0.1350748E+01  0.5998375E+05 -0.2674519E+01  0.9931868E-01 -0.1189502E+01  0.6077181E+06  0.2369998E+01  0.1621812E-07  0.2457883E+01
  0.1380000E+01  0.4359872E+06 -0.7271015E+00  0.3396373E-01  0.7213817E+00  0.5766816E+05 -0.2671165E+01  0.5294310E-01  0.1329610E+01  0.5746968E+06  0.2393969E+01  0.1058868E-07  0.1826441E+01
  0.1400000E+01  0.4204931E+06 -0.7021247E+00  0.4624034E-01 -0.2847303E+01  0.5540505E+05 -0.2667777E+01  0.2437346E-01 -0.2410492E-01  0.5404044E+06  0.2417264E+01  0.1089106E-07  0.2115799E+01
  0.1420000E+01  0.4046061E+06 -0.6780087E+00  0.1093816E+00  0.1531866E+01  0.5313905E+05 -0.2664537E+01  0.4361568E-01 -0.1239407E+01  0.5071807E+06  0.2439457E+01  0.1790385E-07 -0.2631155E+00
  0.1440000E+01  0.3880832E+06 -0.6548584E+00  0.1402491E-01  0.4648032E+00  0.5093087E+05 -0.2661467E+01  0.2418796E-01 -0.1547453E+01  0.4735543E+06  0.2460386E+01  0.1572881E-07  0.1244950E+01
  0.1460000E+01  0.3711534E+06 -0.6325170E+00  0.2085919E+00  0.1577205E+01  0.4862332E+05 -0.2659593E+01  0.1419932E-01  0.1609358E+01  0.4405469E+06  0.2480386E+01  0.1334874E-07  0.2108649E+00
  0.1480000E+01  0.3536687E+06 -0.6108356E+00  0.2463481E-01 -0.1660332E+01  0.4638014E+05 -0.2657605E+01  0.1286235E+00 -0.1575497E+01  0.4078229E+06  0.2499465E+01  0.7481907E-08 -0.1479256E+01
  0.1500000E+01  0.3359803E+06 -0.5899475E+00  0.5185935E-01 -0.1234257E+01  0.4418421E+05 -0.2655768E+01  0.4130109E-01  0.1082197E+01  0.3762380E+06  0.2517653E+01  0.3826240E-08 -0.1340577E+01
  0.1520000E+01  0.3180640E+06 -0.5698408E+00  0.2272746E-01  0.8065315E-01  0.4200807E+05 -0.2653921E+01  0.2229643E-01  0.1320371E+00  0.3456261E+06  0.2534546E+01  0.6278068E-08  0.2840367E+01
  0.1540000E+01  0.3000250E+06 -0.5505853E+00  0.5434220E-01 -0.1423871E+01  0.3988429E+05 -0.2652346E+01  0.7720847E-01 -0.1429839E+01  0.3159211E+06  0.2550451E+01  0.1630646E-07  0.2969402E+01
  0.1560000E+01  0.2818791E+06 -0.5321314E+00  0.9046339E-02 -0.1153557E+01  0.3784351E+05 -0.2650804E+01  0.2859387E-01  0.1461517E+01  0.2871726E+06  0.2564957E+01  0.1220141E-07 -0.2484734E+01
  0.1580000E+01  0.2637493E+06 -0.5142733E+00  0.1406713E-02  0.9777983E-01  0.3584580E+05 -0.2649350E+01  0.9141011E-02  0.2940555E+01  0.2600471E+06  0.2578316E+01  0.1513399E-07 -0.1965587E+01
  0.1600000E+01  0.2455552E+06 -0.4970525E+00  0.6127886E-01  0.1476157E+01  0.3392625E+05 -0.2647891E+01  0.3687038E-01  0.2310344E+01  0.2338228E+06  0.2590589E+01  0.1789012E-07 -0.2466852E+01
  0.1620000E+01  0.2273446E+06 -0.4803851E+00  0.6210082E-01  0.1423887E+01  0.3208233E+05 -0.2646258E+01  0.1097527E+00 -0.1696707E+01  0.2086198E+06  0.2601250E+01  0.1735018E-07  0.2441700E+01
  0.1640000E+01  0.2094230E+06 -0.4643454E+00  0.1551898E-01  0.3070740E+01  0.3027388E+05 -0.2645088E+01  0.3229460E-01  0.1684675E+01  0.1853576E+06  0.2610749E+01  0.1944659E-07 -0.2914568E+00
  0.1660000E+01  0.1916363E+06 -0.4490097E+00  0.2040420E-01 -0.1828653E+01  0.2855474E+05 -0.2643759E+01  0.2101898E-01  0.1387928E+01  0.1631764E+06  0.2617766E+01  0.6519258E-08  0.0000000E+00
  0.1680000E+01  0.1740636E+06 -0.4341974E+00  0.2397351E-01 -0.1431915E+01  0.2686723E+05 -0.2643384E+01  0.7486591E-01 -0.1159461E+01  0.1423690E+06  0.2622883E+01  0.2311951E-07  0.2813473E+01
  0.1700000E+01  0.1566860E+06 -0.4196495E+00  0.3351466E-01 -0.1617708E+01  0.2524631E+05 -0.2642716E+01  0.3438650E-01  0.2372286E+01  0.1230208E+06  0.2626057E+01  0.6247502E-08  0.1107149E+01
  0.1720000E+01  0.1395507E+06 -0.4054498E+00  0.3501114E-01 -0.1625956E+01  0.2371058E+05 -0.2641824E+01  0.1115997E-01 -0.3745041E+00  0.1049648E+06  0.2626399E+01  0.9417417E-08 -0.1719686E+01
  0.1740000E+01  0.1227817E+06 -0.3915761E+00  0.7337987E-01 -0.1567677E+01  0.2222342E+05 -0.2641184E+01  0.1422995E-01 -0.1285252E+01  0.8857441E+05  0.2623417E+01  0.5036897E-08  0.5880026E+00
  0.1760000E+01  0.1063208E+06 -0.3778206E+00  0.9416234E-02 -0.2188691E+01  0.2079781E+05 -0.2640677E+01  0.5188619E-01 -0.1379920E+01  0.7358262E+05  0.2615963E+01  0.1686697E-07  0.1681454E+01
  0.1780000E+01  0.9017491E+05 -0.3640702E+00  0.5398802E-01  0.1580265E+01  0.1947732E+05 -0.2639608E+01  0.1822944E-01  0.1505723E+01  0.5981639E+05  0.2601460E+01  0.1126284E-07  0.1695151E+01
  0.1800000E+01  0.7438002E+05 -0.3497050E+00  0.3388016E-01  0.1535660E+01  0.1823196E+05 -0.2637900E+01  0.2627279E-01  0.1802826E+01  0.4746357E+05  0.2577343E+01  0.4861646E-08 -0.1862253E+01
  0.1820000E+01  0.5895963E+05 -0.3336998E+00  0.7257602E-01  0.1582781E+01  0.1703272E+05 -0.2636060E+01  0.2267254E-01  0.1969154E+01  0.3654935E+05  0.2539454E+01  0.4190952E-08 -0.3141592E+01
  0.1840000E+01  0.4392914E+05 -0.3144932E+00  0.3506730E-01 -0.1558612E+01  0.1589966E+05 -0.2634068E+01  0.1411323E-02 -0.2900281E+01  0.2696676E+05  0.2476911E+01  0.1333451E-07  0.1359703E+01
  0.1860000E+01  0.2926715E+05 -0.2867385E+00  0.5459739E-01  0.1578063E+01  0.1486356E+05 -0.2630804E+01  0.8035102E-02  0.2805494E+01  0.1867222E+05  0.2362683E+01  0.1428450E-07 -0.2809533E+01
  0.1880000E+01  0.1506569E+05 -0.2257956E+00  0.7939841E-01  0.1547156E+01  0.1387291E+05 -0.2627130E+01  0.9310295E-02  0.9004594E-01  0.1204393E+05  0.2141534E+01  0.6922553E-08  0.1913820E+01
  0.1900000E+01  0.1979633E+04  0.6204345E+00  0.6910734E-01 -0.1573667E+01  0.1291664E+05 -0.2623523E+01  0.9210851E-02  0.1547084E+01  0.7661917E+04  0.1673062E+01  0.2832507E-08  0.1735945E+01
  0.1920000E+01  0.1234475E+05  0.2696270E+01  0.5434394E-01  0.1533444E+01  0.1201066E+05 -0.2619788E+01  0.1418449E-01 -0.1468659E+01  0.6807866E+04  0.9492335E+00  0.2699631E-07 -0.1832510E+01
  0.1940000E+01  0.2525674E+05  0.2770863E+01  0.9928771E-02 -0.8811741E+00  0.1119222E+05 -0.2613495E+01  0.2365820E-01  0.1796181E+01  0.8647989E+04  0.4576913E+00  0.5036897E-08  0.5880026E+00
  0.1960000E+01  0.3775924E+05  0.2799650E+01  0.1781688E-01  0.1133962E+01  0.1041310E+05 -0.2606512E+01  0.5752461E-02  0.1098798E+01  0.1089948E+05  0.2257776E+00  0.4656613E-08  0.2498091E+01
  0.1980000E+01  0.4980736E+05  0.2817227E+01  0.1741990E-01 -0.1624254E+01  0.9719040E+04 -0.2595974E+01  0.9898464E-02  0.1593199E+01  0.1258859E+05  0.1076397E+00  0.1041250E-07  0.1750650E+01
  0.2000000E+01  0.6141733E+05  0.2830307E+01  0.3295698E-01  0.1453390E+01  0.9042935E+04 -0.2585769E+01  0.5419700E-02 -0.1646798E+01  0.1362266E+05  0.3842410E-01  0.4748832E-08  0.1973956E+00
  0.2020000E+01  0.7258052E+05  0.2841084E+01  0.5820120E-01  0.1612231E+01  0.8520924E+04 -0.2564569E+01  0.2300363E-01 -0.1550460E+01  0.1401571E+05 -0.6037601E-02  0.1384511E-07 -0.1913820E+01
  0.2040000E+01  0.8327988E+05  0.2850262E+01  0.1465925E-01 -0.1471749E+01  0.8122262E+04 -0.2533494E+01  0.1600441E-02 -0.6874616E+00  0.1366364E+05 -0.3765533E-01  0.1975634E-07  0.1428899E+01
  0.2060000E+01  0.9350584E+05  0.2858185E+01  0.3022972E-01 -0.1439179E+01  0.7922313E+04 -0.2486773E+01  0.9110839E-02  0.1706927E+01  0.1248930E+05 -0.6417215E-01  0.5015325E-08 -0.1190290E+01
  0.2080000E+01  0.1032737E+06  0.2865765E+01  0.6521236E-02  0.1465307E+01  0.7853934E+04 -0.2429783E+01  0.2682059E-02  0.2428449E+01  0.1072258E+05 -0.8927165E-01  0.5587935E-08  0.0000000E+00
  0.2100000E+01  0.1125729E+06  0.2873029E+01  0.3113108E-01 -0.1102984E+01  0.8050457E+04 -0.2356373E+01  0.7319530E-03 -0.1730429E+01  0.8472750E+04 -0.1115066E+00  0.5963374E-08  0.6747410E+00
  0.2120000E+01  0.1214214E+06  0.2879864E+01  0.4994286E-01  0.1663503E+01  0.8707488E+04 -0.2264983E+01  0.2580785E-02  0.1502010E+01  0.5773586E+04 -0.1362939E+00  0.4748832E-08 -0.1373401E+01
  0.2140000E+01  0.1296851E+06  0.2885959E+01  0.2682548E-01 -0.1577053E+01  0.1113845E+05 -0.2130701E+01  0.4071345E-02 -0.2996085E+01  0.2110520E+04 -0.3466550E+00  0.1041250E-08  0.4636476E+00
  0.2160000E+01  0.1374849E+06  0.2891946E+01  0.6958074E-02 -0.2502477E+01  0.2112779E+05 -0.1972671E+01  0.1489541E-01  0.1402385E+01  0.2152246E+04 -0.2885037E+01  0.2221551E-07 -0.9944211E+00
  0.2180000E+01  0.1448385E+06  0.2897780E+01  0.1118932E-01 -0.2979224E+00  0.5231575E+05  0.1523008E+01  0.5752230E-01  0.1609212E+01  0.6340846E+04 -0.3102585E+01  0.4799927E-08 -0.6823165E+00
  0.2200000E+01  0.1517390E+06  0.2903412E+01  0.1578308E-01  0.1510820E+01  0.8927782E+04  0.1706207E+01  0.1897567E-01 -0.1468791E+01  0.1092309E+05  0.3130753E+01  0.9588553E-08 -0.2077895E+01
  0.2220000E+01  0.1581468E+06  0.2908791E+01  0.8351023E-02  0.1778763E+01  0.4346556E+04  0.2004882E+01  0.7730724E-02  0.1662756E+01  0.1592188E+05  0.3110717E+01  0.1297182E-07  0.3671738E+00
  0.2240000E+01  0.1640865E+06  0.2913910E+01  0.1976014E-01 -0.1792690E+01  0.3033473E+04  0.2247020E+01  0.6306870E-02 -0.1596784E+01  0.2109806E+05  0.3099848E+01  0.5450425E-08  0.1919567E+01
  0.2260000E+01  0.1694978E+06  0.2918891E+01  0.2076549E-01 -0.1247768E+01  0.2395829E+04  0.2448557E+01  0.5083367E-02 -0.1395383E+01  0.2645735E+05  0.3093930E+01  0.1436963E-07 -0.8656850E+00
  0.2280000E+01  0.1743986E+06  0.2923426E+01  0.3686684E-01  0.1480446E+01  0.2024323E+04  0.2607790E+01  0.5671863E-02 -0.1352705E+01  0.3219214E+05  0.3094571E+01  0.8132425E-08  0.1801887E+01
  0.2300000E+01  0.1788420E+06  0.2927835E+01  0.5388513E-02 -0.2718481E+01  0.1742989E+04  0.2771492E+01  0.2431217E-02 -0.1353744E+01  0.3797091E+05  0.3092656E+01  0.8885014E-08 -0.1019141E+01
  0.2320000E+01  0.1828723E+06  0.2932259E+01  0.1141543E-01 -0.1856716E+01  0.1556264E+04  0.2827519E+01  0.1550075E-02 -0.2330687E+01  0.4343852E+05  0.3087856E+01  0.2477897E-07 -0.1876204E+01
  0.2340000E+01  0.1864238E+06  0.2936364E+01  0.1887663E-01  0.1982455E+01  0.1409564E+04  0.2830393E+01  0.3976645E-02 -0.1733860E+01  0.4892933E+05  0.3088242E+01  0.9868732E-08  0.1183718E+01
  0.2360000E+01  0.1894939E+06  0.2940159E+01  0.1642709E-01 -0.1528985E+01  0.1282491E+04  0.2806816E+01  0.4778323E-02  0.1287168E+01  0.5450061E+05  0.3089865E+01  0.5684120E-08  0.6107258E+00
  0.2380000E+01  0.1920688E+06  0.2943686E+01  0.2156488E-01 -0.1975137E+01  0.1171054E+04  0.2781839E+01  0.5852371E-02 -0.5435041E+00  0.6018646E+05  0.3092452E+01  0.1870465E-07  0.1980489E+01
  0.2400000E+01  0.1941975E+06  0.2947980E+01  0.3538271E-02 -0.1275644E+00  0.1056832E+04  0.2778534E+01  0.6043669E-02  0.1353889E+01  0.6576870E+05  0.3093021E+01  0.1121461E-07  0.8441540E+00
  0.2420000E+01  0.1958397E+06  0.2952355E+01  0.1291481E-01 -0.1185628E+01  0.9509143E+03  0.2776243E+01  0.9126187E-02  0.1505328E+01  0.7109109E+05  0.3093649E+01  0.2171232E-07 -0.2692333E+01
  0.2440000E+01  0.1970294E+06  0.2957010E+01  0.1620210E-01 -0.4796530E+00  0.8430084E+03  0.2789272E+01  0.5578857E-02  0.2637511E+01  0.7619230E+05  0.3090892E+01  0.6528606E-08  0.3088072E+01
  0.2460000E+01  0.1977516E+06  0.2961075E+01  0.1098659E-01 -0.4667532E+00  0.7615602E+03  0.2787901E+01  0.8153593E-02 -0.1899292E+01  0.8142197E+05  0.3096645E+01  0.1993151E-07 -0.2947634E+01
  0.2480000E+01  0.1980614E+06  0.2965264E+01  0.2994537E-02 -0.6435012E+00  0.6898375E+03  0.2798644E+01  0.1861618E-01 -0.1465199E+01  0.8640361E+05  0.3104973E+01  0.3026798E-08 -0.2746802E+01
  0.2500000E+01  0.1979630E+06  0.2969672E+01  0.5760492E-02 -0.2928742E+01  0.6188530E+03  0.2805773E+01  0.1483128E-01 -0.1686077E+01  0.9097062E+05  0.3110839E+01  0.1133003E-07 -0.2976444E+01
  0.2520000E+01  0.1974280E+06  0.2974473E+01  0.8240481E-02 -0.1225176E+00  0.5473113E+03  0.2827272E+01  0.3284069E-02  0.1630917E+01  0.9522777E+05  0.3114215E+01  0.1323658E-07  0.8850668E+00
  0.2540000E+01  0.1964539E+06  0.2979829E+01  0.9838526E-02 -0.5309770E+00  0.4776350E+03  0.2865278E+01  0.7518685E-02  0.2121307E+01  0.9953512E+05  0.3116597E+01  0.1287956E-07 -0.1352127E+01
  0.2560000E+01  0.1950223E+06  0.2985815E+01  0.1555267E-01 -0.9498625E+00  0.4128460E+03  0.2919353E+01  0.1707227E-01 -0.1918487E+01  0.1039089E+06  0.3119034E+01  0.4656613E-08 -0.2498091E+01
  0.2580000E+01  0.1931928E+06  0.2992422E+01  0.1058565E-01 -0.2174791E+01  0.3555807E+03  0.2953827E+01  0.1711026E-01 -0.1196025E+01  0.1080745E+06  0.3123369E+01  0.3357931E-08  0.2158799E+01
  0.2600000E+01  0.1910175E+06  0.3000021E+01  0.2184273E-01  0.5189728E+00  0.3033782E+03  0.2982574E+01  0.5395916E-02 -0.2951515E+01  0.1118239E+06  0.3128587E+01  0.2507663E-08  0.1190290E+01
  0.2620000E+01  0.1886821E+06  0.3008756E+01  0.1818689E-01  0.1947096E+01  0.2595673E+03  0.3018895E+01  0.3413536E-02  0.3439166E+00  0.1146504E+06  0.3139200E+01  0.1224964E-07 -0.1418147E+01
  0.2640000E+01  0.1859839E+06  0.3019784E+01  0.4407394E-02 -0.2181057E+00  0.2186279E+03  0.3062608E+01  0.2809349E-02 -0.2444583E+01  0.1176270E+06 -0.3131597E+01  0.1099000E-07  0.2205823E+01
  0.2660000E+01  0.1828289E+06  0.3035266E+01  0.1880869E-01 -0.1952357E+01  0.1796723E+03  0.3117054E+01  0.2106665E-01  0.1927190E+01  0.1210505E+06 -0.3117759E+01  0.3259629E-08 -0.1570796E+01
  0.2680000E+01  0.1794118E+06  0.3059135E+01  0.1160714E-01 -0.2439953E+01  0.1426417E+03  0.3122047E+01  0.9447896E-02  0.1416529E+01  0.1247520E+06 -0.3098658E+01  0.7916242E-08 -0.1080839E+01
  0.2700000E+01  0.1762110E+06  0.3101778E+01  0.7555458E-02  0.1126117E+01  0.1108884E+03  0.3125489E+01  0.8758086E-02  0.2626626E+01  0.1289132E+06 -0.3058448E+01  0.7750148E-08  0.5713375E+00
  0.2720000E+01  0.1719596E+06 -0.3074687E+01  0.8715708E-02 -0.8764833E-01  0.8209325E+02  0.3131722E+01  0.1122924E-01 -0.8371663E+00  0.1390995E+06 -0.2959751E+01  0.1678966E-08 -0.2158799E+01
  0.2740000E+01  0.1197159E+06 -0.2377839E+01  0.9496366E-02 -0.1330689E+01  0.5658364E+02  0.3139314E+01  0.6691198E-02  0.4041432E+00  0.1706189E+06 -0.2296517E+01  0.3357931E-08  0.2553590E+01
  0.2760000E+01  0.1405265E+06  0.2624329E+01  0.3372816E-02  0.1061611E+01  0.3388647E+02  0.3139128E+01  0.2235024E-02 -0.3850426E+00  0.5568308E+05  0.2857927E+01  0.1032427E-07  0.1446441E+01
  0.2780000E+01  0.1479455E+06  0.2814521E+01  0.1379906E-01 -0.1706673E+01  0.1371763E+02  0.3045404E+01  0.3662593E-02 -0.2151033E+00  0.8445769E+05  0.2979624E+01  0.1919971E-07  0.1815775E+01
  0.2800000E+01  0.1448088E+06  0.2873362E+01  0.8029212E-02  0.2934880E+01  0.5534575E+01  0.7633398E+00  0.7392380E-02 -0.2175327E+01  0.9218285E+05  0.3024669E+01  0.7508563E-08 -0.1051650E+01
  0.2820000E+01  0.1402690E+06  0.2902953E+01  0.1571923E-01 -0.1992322E+01  0.2033534E+02  0.3663596E+00  0.7687654E-02 -0.1430279E+01  0.9362504E+05  0.3046333E+01  0.7273862E-08 -0.6947383E+00
  0.2840000E+01  0.1346431E+06  0.2919929E+01  0.1214000E-01  0.1911030E+01  0.3813630E+02  0.3653590E+00  0.1871759E-02 -0.2079112E+01  0.9477776E+05  0.3062696E+01  0.1214296E-07 -0.2137526E+01
  0.2860000E+01  0.1282498E+06  0.2930488E+01  0.4583990E-02  0.2536048E+01  0.5953696E+02  0.3984325E+00  0.2191084E-02  0.8797832E+00  0.9513658E+05  0.3075681E+01  0.2803652E-08 -0.1487655E+01
  0.2880000E+01  0.1217838E+06  0.2938546E+01  0.1167721E-01  0.2977518E+01  0.8081911E+02  0.4470475E+00  0.6112398E-02 -0.9490290E+00  0.9395060E+05  0.3085834E+01  0.1086099E-07  0.1030377E+01
  0.2900000E+01  0.1152511E+06  0.2944965E+01  0.6290513E-02  0.9230697E-01  0.1010020E+03  0.5011184E+00  0.5660393E-02 -0.6851197E+00  0.9162880E+05  0.3093360E+01  0.6922553E-08 -0.1227772E+01
  0.2920000E+01  0.1086666E+06  0.2950620E+01  0.9263870E-02 -0.2456819E+01  0.1202218E+03  0.5447399E+00  0.7442278E-02  0.1426650E+01  0.8839386E+05  0.3099061E+01  0.8896446E-08 -0.2319174E+01
  0.2940000E+01  0.1019464E+06  0.2955787E+01  0.4109121E-02 -0.2984991E+01  0.1370326E+03  0.5783057E+00  0.6667952E-02 -0.3122842E+01  0.8432780E+05  0.3103315E+01  0.5937181E-08  0.4899573E+00
  0.2960000E+01  0.9513206E+05  0.2960396E+01  0.3819893E-02 -0.1145119E+01  0.1536865E+03  0.5994852E+00  0.5939431E-02 -0.2318750E+01  0.7992847E+05  0.3107288E+01  0.9383538E-08 -0.2224223E+01
  0.2980000E+01  0.8823831E+05  0.2964791E+01  0.1501830E-02 -0.1477952E+01  0.1672446E+03  0.6473200E+00  0.8266502E-02 -0.7278935E+00  0.7521764E+05  0.3110547E+01  0.5471520E-08  0.0000000E+00
  0.3000000E+01  0.8122419E+05  0.2968731E+01  0.1835213E-02  0.1765498E+01  0.1807628E+03  0.6955653E+00  0.2410085E-02  0.9876912E+00  0.7034248E+05  0.3113591E+01  0.1412992E-07 -0.1721469E+01
  0.3020000E+01  0.7401195E+05  0.2970986E+01  0.1408861E-02  0.1486081E+01  0.2060272E+03  0.7335356E+00  0.9514273E-03 -0.1073845E+01  0.6565784E+05  0.3119452E+01  0.1319226E-07  0.1417979E+01