VARIABLES="w (rad/s)"
"abs(F   1   1)" "angle(F   1   1)"
"abs(F   1   2)" "angle(F   1   2)"
"abs(F   1   3)" "angle(F   1   3)"
"abs(F   1   4)" "angle(F   1   4)"
"abs(F   1   5)" "angle(F   1   5)"
"abs(F   1   6)" "angle(F   1   6)"
Zone t="FKforce - beta =   0.000",I=   300,F=POINT
  0.2000000E-01  0.3210289E+03 -0.1570936E+01  0.6619263E-01  0.6866104E-04  0.7871634E+06 -0.1514416E-12  0.2991211E+01  0.7472473E-06  0.7639049E+03  0.1571044E+01  0.3725290E-08 -0.1220703E-03
  0.4000000E-01  0.1283331E+04 -0.1570753E+01  0.2774048E-01 -0.3141456E+01  0.7862011E+06 -0.1303992E-10  0.1290161E+01  0.4744676E-04  0.3052934E+04  0.1570818E+01  0.3725371E-08 -0.3135001E+01
  0.6000000E-01  0.2884552E+04 -0.1570839E+01  0.3359988E-01  0.3140275E+01  0.7845988E+06 -0.4254226E-10  0.1602783E+00  0.3718821E-04  0.6859057E+04  0.1570745E+01  0.9313763E-08 -0.3130851E+01
  0.8000000E-01  0.5120783E+04 -0.1570796E+01  0.1300964E+00 -0.5589520E-04  0.7823622E+06 -0.1218968E-10  0.1440473E-01 -0.3133830E+01  0.1216892E+05  0.1570830E+01  0.1866748E-08  0.6630889E-01
  0.9999999E-01  0.7986554E+04 -0.1570796E+01  0.5911255E-01  0.3141393E+01  0.7794951E+06 -0.2446903E-10  0.2113037E+01 -0.3141549E+01  0.1896386E+05  0.1570776E+01  0.9313328E-08  0.4687466E-02
  0.1200000E+00  0.1147489E+05 -0.1570796E+01  0.2037964E+00  0.1029500E-03  0.7760049E+06 -0.1671377E-09  0.1388062E+01 -0.3141476E+01  0.2722007E+05  0.1570768E+01  0.1865045E-08 -0.3090855E+01
  0.1400000E+00  0.1557730E+05 -0.1570794E+01  0.7431030E-01  0.1668378E-03  0.7718962E+06 -0.1976793E-10  0.4703613E+01 -0.1317898E-03  0.3690861E+05  0.1570799E+01  0.1304319E-07  0.3114813E+01
  0.1600000E+00  0.2028379E+05 -0.1570790E+01  0.7202149E-02 -0.3141063E+01  0.7671832E+06 -0.3381192E-09  0.3567505E+01 -0.3141500E+01  0.4799553E+05  0.1570788E+01  0.1994462E-08  0.3656023E+00
  0.1800000E+00  0.2558297E+05 -0.1570799E+01  0.1004029E+00  0.1329786E-02  0.7618750E+06 -0.4706567E-09  0.2938232E+01  0.3141526E+01  0.6044189E+05  0.1570806E+01  0.3727109E-08 -0.3110353E+01
  0.2000000E+00  0.3146197E+05 -0.1570792E+01  0.7470714E-01 -0.3139869E+01  0.7559819E+06  0.2220247E-09  0.1004272E+01  0.7786860E-04  0.7420416E+05  0.1570789E+01  0.1125577E-07  0.3022369E+01
  0.2200000E+00  0.3790661E+05 -0.1570794E+01  0.8282471E-01 -0.3141432E+01  0.7495175E+06  0.3053722E-10  0.1498780E+01 -0.3140886E+01  0.8923430E+05  0.1570804E+01  0.1124252E-07  0.3032651E+01
  0.2400000E+00  0.4490148E+05 -0.1570798E+01  0.3823853E-01 -0.3141194E+01  0.7424988E+06  0.5959672E-09  0.2514893E+01 -0.8949374E-04  0.1054795E+06  0.1570794E+01  0.1775334E-08  0.1570796E+01
  0.2600000E+00  0.5242968E+05 -0.1570799E+01  0.4193156E-01 -0.3137180E+01  0.7349386E+06 -0.2283819E-09  0.2629404E+00  0.3138923E+01  0.1228836E+06  0.1570796E+01  0.9533448E-08  0.2153577E+00
  0.2800000E+00  0.6047324E+05 -0.1570796E+01  0.4486130E-01  0.3137065E+01  0.7268552E+06 -0.1679431E-09  0.1578982E+01 -0.1611421E-02  0.1413853E+06  0.1570799E+01  0.5595509E-08 -0.5203632E-01
  0.3000000E+00  0.6901302E+05 -0.1570796E+01  0.1665234E-01 -0.4932921E-01  0.7182652E+06 -0.1062197E-09  0.1247601E+00 -0.3133307E+01  0.1609202E+06  0.1570796E+01  0.7739649E-08  0.2867425E+01
  0.3200000E+00  0.7802882E+05 -0.1570796E+01  0.1618656E-02 -0.3102697E+01  0.7091890E+06 -0.2151583E-09  0.2868165E+01  0.3140873E+01  0.1814205E+06  0.1570798E+01  0.3801366E-08  0.2941194E+01
  0.3400000E+00  0.8749924E+05 -0.1570798E+01  0.1492944E+00 -0.5710792E-02  0.6996454E+06  0.1570271E-08  0.2178955E+01  0.3141190E+01  0.2028150E+06  0.1570796E+01  0.3839941E-08  0.2449787E+00
  0.3600000E+00  0.9740210E+05 -0.1570797E+01  0.1016543E+00 -0.3139247E+01  0.6896552E+06 -0.4425049E-10  0.8724372E+00 -0.3140307E+01  0.2250292E+06  0.1570800E+01  0.9572285E-08 -0.2331798E+00
  0.3800000E+00  0.1077143E+06 -0.1570796E+01  0.1479862E-01 -0.3079946E+01  0.6792401E+06  0.1729767E-08  0.1547364E+01 -0.1000907E-02  0.2479865E+06  0.1570796E+01  0.1129409E-07  0.1448125E+00
  0.4000000E+00  0.1184119E+06 -0.1570796E+01  0.6713868E-01 -0.3141166E+01  0.6684218E+06  0.1187060E-08  0.2671143E+01 -0.3141290E+01  0.2716076E+06  0.1570795E+01  0.5631422E-08  0.1243550E+00
  0.4200000E+00  0.1294701E+06 -0.1570795E+01  0.1140163E+00  0.6808647E-02  0.6572231E+06  0.1346590E-08  0.1274414E+01 -0.7902297E-03  0.2958105E+06  0.1570796E+01  0.2117735E-07  0.2556449E+00
  0.4400000E+00  0.1408634E+06 -0.1570797E+01  0.6247804E-02 -0.8435815E-01  0.6456680E+06 -0.5199164E-09  0.9038126E+00  0.3005123E-02  0.3205118E+06  0.1570797E+01  0.2328306E-08  0.2498091E+01
  0.4600000E+00  0.1525661E+06 -0.1570796E+01  0.1455713E-01  0.5765135E-02  0.6337799E+06  0.1059337E-08  0.1189485E+01 -0.3134261E+01  0.3456267E+06  0.1570795E+01  0.1040274E-07  0.1481150E+01
  0.4800000E+00  0.1645516E+06 -0.1570796E+01  0.4495297E-01  0.5091606E-02  0.6215830E+06  0.9819309E-10  0.2787448E+00  0.2044722E-01  0.3710695E+06  0.1570798E+01  0.1779289E-07 -0.3036716E+01
  0.5000000E+00  0.1767925E+06 -0.1570796E+01  0.2999906E-01  0.3137269E+01  0.6091027E+06  0.3006151E-08  0.2742322E+00  0.3138616E+01  0.3967529E+06  0.1570796E+01  0.1594337E-07  0.2638749E+01
  0.5200000E+00  0.1892623E+06 -0.1570797E+01  0.9509339E-01 -0.3610382E-02  0.5963626E+06 -0.2814507E-08  0.6333235E+00  0.3133124E+01  0.4225906E+06  0.1570798E+01  0.7273862E-08 -0.6947383E+00
  0.5400000E+00  0.2019330E+06 -0.1570796E+01  0.5770965E-01  0.5618661E-02  0.5833889E+06  0.1569326E-09  0.6317154E+00  0.3139395E+01  0.4484932E+06  0.1570798E+01  0.1424650E-07 -0.1973956E+00
  0.5600000E+00  0.2147767E+06 -0.1570797E+01  0.2540248E-01 -0.2999505E+01  0.5702062E+06  0.2783053E-08  0.1231874E+01 -0.1362532E-02  0.4743725E+06  0.1570797E+01  0.2148233E-07  0.3065652E+01
  0.5800000E+00  0.2277661E+06 -0.1570796E+01  0.3600850E-01  0.3963149E-01  0.5568402E+06 -0.5918930E-08  0.6646126E+00  0.3140054E+01  0.5001432E+06  0.1570796E+01  0.8132425E-08  0.1801887E+01
  0.6000000E+00  0.2408720E+06 -0.1570796E+01  0.3068123E-01  0.2685921E-01  0.5433161E+06  0.7301983E-09  0.1008283E+01  0.3127185E+01  0.5257168E+06  0.1570796E+01  0.3978612E-08 -0.2782822E+01
  0.6199999E+00  0.2540679E+06 -0.1570796E+01  0.2878045E-01  0.1285719E-01  0.5296588E+06  0.3111341E-08  0.7011166E+00  0.1379853E-01  0.5510083E+06  0.1570797E+01  0.1214296E-07 -0.2574863E+01
  0.6400000E+00  0.2673253E+06 -0.1570797E+01  0.6655916E-01  0.3138498E+01  0.5158930E+06 -0.7690132E-08  0.2809883E+00 -0.3123997E+01  0.5759342E+06  0.1570796E+01  0.1527483E-07  0.2485897E+01
  0.6600000E+00  0.2806163E+06 -0.1570796E+01  0.8426505E-01 -0.3129641E+01  0.5020428E+06  0.3525635E-08  0.4146851E+00 -0.7690458E-02  0.6004124E+06  0.1570797E+01  0.1687340E-07 -0.6876712E+00
  0.6799999E+00  0.2939140E+06 -0.1570796E+01  0.5695071E-01 -0.1312893E-01  0.4881337E+06  0.7502267E-08  0.1033020E+01 -0.3141120E+01  0.6243602E+06  0.1570796E+01  0.9477666E-08  0.4856221E+00
  0.7000000E+00  0.3071912E+06 -0.1570797E+01  0.1869551E+00 -0.6855916E-02  0.4741887E+06  0.4118878E-08  0.3448494E+00  0.2123891E-02  0.6477012E+06  0.1570796E+01  0.1465354E-07  0.3066763E+00
  0.7200000E+00  0.3204209E+06 -0.1570796E+01  0.3937366E-02  0.1744009E-01  0.4602315E+06 -0.2121894E-08  0.2246154E+00 -0.3134256E+01  0.6703572E+06  0.1570796E+01  0.1178040E-07 -0.3217506E+00
  0.7399999E+00  0.3335771E+06 -0.1570797E+01  0.6900351E-01  0.3129509E-01  0.4462855E+06  0.8479280E-08  0.1464693E+01 -0.6667401E-02  0.6922564E+06  0.1570796E+01  0.1664047E-07  0.3129012E+00
  0.7600000E+00  0.3466342E+06 -0.1570796E+01  0.5163784E-01  0.3132580E+01  0.4323716E+06 -0.1143426E-07  0.2514182E+00  0.3964151E-01  0.7133292E+06  0.1570796E+01  0.2403913E-07  0.1726391E+01
  0.7800000E+00  0.3595667E+06 -0.1570796E+01  0.5981544E-01 -0.5739733E-02  0.4185130E+06 -0.8750288E-09  0.3118160E+00  0.3123975E+01  0.7335092E+06  0.1570796E+01  0.2634178E-08  0.7853982E+00
  0.8000000E+00  0.3723504E+06 -0.1570796E+01  0.8169583E-01 -0.2614861E-02  0.4047294E+06  0.0000000E+00  0.3534316E+00 -0.3126913E+01  0.7527289E+06  0.1570796E+01  0.5607304E-08  0.3058451E+01
  0.8200000E+00  0.3849608E+06 -0.1570797E+01  0.9957886E-01 -0.7661661E-04  0.3910420E+06  0.0000000E+00  0.1892396E+00 -0.3110464E+01  0.7709336E+06  0.1570796E+01  0.7916242E-08  0.1080839E+01
  0.8400000E+00  0.3973756E+06 -0.1570796E+01  0.9787347E-01  0.8574782E-02  0.3774695E+06 -0.8569866E-08  0.8259491E+00 -0.7186545E-02  0.7880638E+06  0.1570796E+01  0.6053597E-08 -0.3947911E+00
  0.8600000E+00  0.4095718E+06 -0.1570796E+01  0.4255863E-01  0.2996958E+01  0.3640308E+06  0.4359285E-08  0.1035836E+01  0.3129984E+01  0.8040680E+06  0.1570796E+01  0.1862645E-08  0.0000000E+00
  0.8800001E+00  0.4215271E+06 -0.1570796E+01  0.1152692E+00 -0.3132922E+01  0.3507438E+06 -0.1044098E-08  0.4826317E+00 -0.3131064E+01  0.8189003E+06  0.1570796E+01  0.1791435E-07 -0.1727398E+01
  0.9000000E+00  0.4332220E+06 -0.1570796E+01  0.2815721E-01  0.1107769E+00  0.3376250E+06  0.1138901E-07  0.8865277E+00  0.3130646E+01  0.8325162E+06  0.1570796E+01  0.1600277E-07 -0.2995580E+01
  0.9200000E+00  0.4446362E+06 -0.1570796E+01  0.5549472E-01 -0.2227354E-01  0.3246907E+06  0.3195650E-08  0.9628350E+00  0.1174347E-01  0.8448762E+06  0.1570796E+01  0.2634178E-08  0.2356194E+01
  0.9399999E+00  0.4557501E+06 -0.1570796E+01  0.7655671E-02  0.1049178E+01  0.3119559E+06 -0.1956532E-09  0.2341499E+01  0.7624585E-02  0.8559469E+06  0.1570796E+01  0.1779289E-07 -0.1675673E+01
  0.9600000E+00  0.4665465E+06 -0.1570796E+01  0.6410987E-01 -0.3090398E+01  0.2994343E+06  0.0000000E+00  0.1335123E+01  0.3794354E-02  0.8656978E+06  0.1570796E+01  0.9219623E-08  0.2356194E+01
  0.9800000E+00  0.4770073E+06 -0.1570796E+01  0.1032456E+00  0.3132134E+01  0.2871393E+06 -0.1339146E-07  0.8265561E+00 -0.1083663E-01  0.8741051E+06  0.1570796E+01  0.1167873E-07 -0.1650626E+01
  0.9999999E+00  0.4871166E+06 -0.1570796E+01  0.1174444E+00 -0.2715735E-01  0.2750830E+06  0.1508778E-07  0.3948674E+00 -0.3140008E+01  0.8811461E+06  0.1570796E+01  0.1762760E-07 -0.1783735E+01
  0.1020000E+01  0.4968596E+06 -0.1570796E+01  0.4495633E-01 -0.3128355E+01  0.2632761E+06 -0.7882202E-08  0.6215134E+00 -0.3133000E+01  0.8868078E+06  0.1570796E+01  0.1214296E-07  0.3064821E+01
  0.1040000E+01  0.5062213E+06 -0.1570796E+01  0.2251627E-01  0.2962406E+01  0.2517288E+06 -0.5334206E-08  0.5114880E+00  0.2025742E-01  0.8910764E+06  0.1570797E+01  0.2160187E-07  0.1700499E+01
  0.1060000E+01  0.5151887E+06 -0.1570796E+01  0.1558736E+00  0.3109283E+01  0.2404504E+06  0.1497637E-07  0.5149925E+00 -0.1970466E-01  0.8939496E+06  0.1570796E+01  0.1396984E-07  0.1570796E+01
  0.1080000E+01  0.5237493E+06 -0.1570796E+01  0.3264851E-01 -0.1044121E+00  0.2294489E+06  0.1330038E-08  0.1006194E+00 -0.2578312E-01  0.8954221E+06  0.1570796E+01  0.2915501E-07  0.1107149E+01
  0.1100000E+01  0.5318918E+06 -0.1570796E+01  0.1381659E-01  0.2860714E+01  0.2187312E+06  0.3069460E-08  0.5735617E+00 -0.3105164E+01  0.8954994E+06  0.1570796E+01  0.2465807E-07 -0.1760785E+01
  0.1120000E+01  0.5396059E+06 -0.1570796E+01  0.8846367E-01 -0.3502192E-01  0.2083040E+06  0.1113438E-07  0.6088076E+00 -0.3135201E+01  0.8941904E+06  0.1570796E+01  0.4656613E-08 -0.6435011E+00
  0.1140000E+01  0.5468827E+06 -0.1570796E+01  0.3339948E-01 -0.1084878E+00  0.1981719E+06  0.6159818E-09  0.4298722E+00  0.2768700E-02  0.8915047E+06  0.1570796E+01  0.1317089E-08 -0.7853982E+00
  0.1160000E+01  0.5537123E+06 -0.1570796E+01  0.2232088E-01 -0.3108089E+01  0.1883393E+06 -0.1328688E-07  0.8718547E+00  0.3129954E+01  0.8874601E+06  0.1570796E+01  0.1541613E-07  0.2007423E+01
  0.1180000E+01  0.5600879E+06 -0.1570796E+01  0.1723095E-02 -0.2741352E+01  0.1788098E+06 -0.1979780E-07  0.1786428E+00 -0.6342048E-01  0.8820772E+06  0.1570796E+01  0.1356026E-07  0.1292497E+01
  0.1200000E+01  0.5660035E+06 -0.1570796E+01  0.2887017E-01  0.2826695E+01  0.1695856E+06 -0.2159446E-08  0.2488990E-01 -0.3019291E+01  0.8753820E+06  0.1570796E+01  0.1607712E-07 -0.1396124E+01
  0.1220000E+01  0.5714526E+06 -0.1570796E+01  0.4824916E-01  0.6008783E-02  0.1606683E+06 -0.7597658E-09  0.4748185E+00  0.1738648E-01  0.8674043E+06  0.1570796E+01  0.2981687E-07 -0.1318242E+01
  0.1240000E+01  0.5764306E+06 -0.1570796E+01  0.3674193E-01 -0.3101934E+00  0.1520588E+06  0.2488630E-07  0.3134093E+00 -0.3122896E+01  0.8581748E+06  0.1570796E+01  0.1333451E-07  0.2003204E+01
  0.1260000E+01  0.5809335E+06 -0.1570796E+01  0.2431574E-01 -0.9742077E-01  0.1437568E+06 -0.2335148E-07  0.1735360E+00 -0.3085553E+01  0.8477282E+06  0.1570796E+01  0.5890201E-08 -0.1249046E+01
  0.1280000E+01  0.5849578E+06 -0.1570796E+01  0.1178699E+00  0.2110266E-01  0.1357617E+06 -0.2382750E-07  0.4226312E+00 -0.1603098E-01  0.8361107E+06  0.1570796E+01  0.7092742E-08  0.1165905E+01
  0.1300000E+01  0.5885016E+06 -0.1570796E+01  0.1176682E+00 -0.3086972E+01  0.1280719E+06  0.2764102E-07  0.2002549E+00 -0.2103188E-01  0.8233612E+06  0.1570796E+01  0.1717274E-07  0.8621700E+00
  0.1320000E+01  0.5915629E+06 -0.1570796E+01  0.2476260E-01 -0.3082403E+01  0.1206851E+06 -0.7586082E-08  0.6324711E+00 -0.8854236E-02  0.8095236E+06  0.1570796E+01  0.3839941E-08 -0.1325818E+01
  0.1340000E+01  0.5941413E+06 -0.1570796E+01  0.3211179E-01  0.3063108E+01  0.1135985E+06  0.3492374E-07  0.5189238E+00  0.1908479E-01  0.7946518E+06  0.1570796E+01  0.5665014E-08 -0.2976444E+01
  0.1360000E+01  0.5962370E+06 -0.1570796E+01  0.6396054E-02  0.3112961E+01  0.1068085E+06  0.8571667E-09  0.9175856E-01  0.2877263E-01  0.7787932E+06  0.1570796E+01  0.1214296E-07  0.1494024E+01
  0.1380000E+01  0.5978499E+06 -0.1570796E+01  0.5016051E-01  0.1026956E+00  0.1003112E+06  0.3346520E-08  0.2816138E+00 -0.3124036E+01  0.7620056E+06  0.1570796E+01  0.1061871E-07  0.1837048E+01
  0.1400000E+01  0.5989819E+06 -0.1570796E+01  0.2831376E-01  0.3116800E+01  0.9410169E+05  0.3632208E-07  0.2293741E+00 -0.3131547E+01  0.7443401E+06  0.1570796E+01  0.2235174E-07 -0.1570796E+01
  0.1420000E+01  0.5996338E+06 -0.1570796E+01  0.2451352E-01 -0.2842087E+01  0.8817495E+05 -0.5537641E-08  0.2178920E+00 -0.3404073E-01  0.7258588E+06  0.1570796E+01  0.3259629E-08  0.0000000E+00
  0.1440000E+01  0.5998090E+06 -0.1570796E+01  0.3428826E-01  0.1339043E+00  0.8252537E+05 -0.6027680E-07  0.8731206E-01 -0.3058836E+01  0.7066187E+06  0.1570796E+01  0.1311314E-07 -0.1464061E+01
  0.1460000E+01  0.5995106E+06 -0.1570796E+01  0.8381355E-02  0.6263870E+00  0.7714711E+05  0.1621863E-07  0.3356886E+00 -0.3120955E+01  0.6866829E+06  0.1570796E+01  0.8586370E-08  0.1789465E+01
  0.1480000E+01  0.5987422E+06 -0.1570796E+01  0.7982671E-01  0.1414549E-01  0.7203357E+05  0.8473155E-08  0.3003617E+00  0.3838987E-01  0.6661096E+06  0.1570796E+01  0.1682191E-07 -0.1653938E+01
  0.1500000E+01  0.5975072E+06 -0.1570796E+01  0.2342256E-01  0.3136381E+01  0.6717833E+05 -0.3361651E-07  0.1416629E+00 -0.1055597E-01  0.6449648E+06  0.1570796E+01  0.1955777E-07  0.1570796E+01
  0.1520000E+01  0.5958112E+06 -0.1570796E+01  0.3191011E-01  0.3055413E+01  0.6257418E+05  0.1950810E-07  0.8987440E-01  0.3123086E+01  0.6233108E+06  0.1570796E+01  0.6984919E-08  0.3141593E+01
  0.1540000E+01  0.5936589E+06 -0.1570796E+01  0.3172094E-01  0.3099249E+01  0.5821406E+05  0.1048461E-08  0.1211291E+00 -0.8944080E-02  0.6012122E+06  0.1570796E+01  0.3406974E-07 -0.1749427E+01
  0.1560000E+01  0.5910553E+06 -0.1570796E+01  0.3194376E-01  0.3157083E+00  0.5409042E+05 -0.2651719E-07  0.3097311E-01 -0.2438841E-01  0.5787331E+06  0.1570796E+01  0.2535610E-07  0.1699707E+01
  0.1580000E+01  0.5880070E+06 -0.1570796E+01  0.1383263E-01 -0.8824922E-02  0.5019563E+05  0.2735877E-07  0.1447835E+00 -0.3336225E-01  0.5559369E+06  0.1570796E+01  0.6065049E-07 -0.1632257E+01
  0.1600000E+01  0.5845206E+06 -0.1570796E+01  0.4317354E-01  0.2985450E+01  0.4652195E+05  0.2099144E-07  0.6540991E-01  0.3030440E+01  0.5328874E+06  0.1570796E+01  0.2074676E-07 -0.1413028E+01
  0.1620000E+01  0.5806023E+06 -0.1570796E+01  0.3978800E-02  0.1830658E+01  0.4306153E+05  0.2976527E-07  0.2463851E-01 -0.3117747E+01  0.5096498E+06  0.1570796E+01  0.6079333E-07 -0.1478750E+01
  0.1640000E+01  0.5762594E+06 -0.1570796E+01  0.9189549E-02  0.3041800E+01  0.3980641E+05 -0.7666497E-09  0.1418547E+00 -0.3545053E-01  0.4862851E+06  0.1570796E+01  0.2603646E-07  0.1308466E+01
  0.1660000E+01  0.5714990E+06 -0.1570796E+01  0.1685634E-02 -0.1914734E+01  0.3674861E+05 -0.1204140E-07  0.4489084E-01  0.1351852E+00  0.4628551E+06  0.1570796E+01  0.3086038E-07 -0.1480136E+01
  0.1680000E+01  0.5663291E+06 -0.1570796E+01  0.4114887E-01 -0.3092625E+01  0.3388018E+05  0.2477063E-07  0.1789261E+00  0.3129525E+01  0.4394216E+06  0.1570796E+01  0.1877141E-08  0.1695151E+01
  0.1700000E+01  0.5607572E+06 -0.1570796E+01  0.2785648E-02 -0.2600703E+01  0.3119304E+05 -0.3179623E-07  0.1502997E+00  0.6074774E-01  0.4160435E+06  0.1570796E+01  0.1260085E-07 -0.1851634E+01
  0.1720000E+01  0.5547931E+06 -0.1570796E+01  0.9357309E-02  0.1308274E+00  0.2867938E+05  0.7980712E-08  0.1995937E-01 -0.9365169E-02  0.3927790E+06  0.1570796E+01  0.7878488E-08 -0.1239700E+01
  0.1740000E+01  0.5484432E+06 -0.1570796E+01  0.3611640E-01  0.2028087E-01  0.2633125E+05 -0.1216936E-07  0.1245883E-01 -0.2801323E+01  0.3696840E+06  0.1570796E+01  0.6798857E-07  0.1563091E+01
  0.1760000E+01  0.5417184E+06 -0.1570796E+01  0.8640162E-02  0.2199413E+01  0.2414096E+05 -0.3792422E-07  0.2307761E-01 -0.1088158E+00  0.3468158E+06  0.1570796E+01  0.1869730E-07  0.1657880E+01
  0.1780000E+01  0.5346266E+06 -0.1570796E+01  0.7421306E-02 -0.2611289E+01  0.2210081E+05 -0.4142506E-08  0.9901498E-02  0.3135043E+01  0.3242248E+06  0.1570796E+01  0.7631200E-08 -0.3748407E+00
  0.1800000E+01  0.5271774E+06 -0.1570796E+01  0.3362373E-01  0.3121624E+01  0.2020327E+05 -0.1049816E-06  0.7610360E-01  0.3140741E+01  0.3019624E+06  0.1570796E+01  0.2889001E-07  0.1607071E+01
  0.1820000E+01  0.5193810E+06 -0.1570796E+01  0.1183114E-01 -0.2853904E+01  0.1844102E+05  0.4302675E-07  0.4876655E-01  0.3045936E+01  0.2800788E+06  0.1570796E+01  0.2524281E-07 -0.1658533E+01
  0.1840000E+01  0.5112464E+06 -0.1570796E+01  0.2373367E-02  0.1784584E+01  0.1680682E+05  0.2632889E-07  0.4593179E-01 -0.7323369E-01  0.2586199E+06  0.1570796E+01  0.3168636E-07  0.1534048E+01
  0.1860000E+01  0.5027844E+06 -0.1570796E+01  0.9116258E-02  0.1640315E+01  0.1529367E+05  0.1646236E-07  0.5758765E-01  0.1954251E-01  0.2376296E+06  0.1570796E+01  0.5707913E-08 -0.1365401E+01
  0.1880000E+01  0.4940042E+06 -0.1570796E+01  0.6491826E-02  0.1045091E+01  0.1389471E+05 -0.8565749E-07  0.4939732E-01  0.3091453E+01  0.2171498E+06  0.1570796E+01  0.4656613E-08 -0.1570796E+01
  0.1900000E+01  0.4849178E+06 -0.1570796E+01  0.9037715E-02 -0.2546566E+01  0.1260336E+05 -0.6053459E-08  0.1763257E-02 -0.2829335E+01  0.1972208E+06  0.1570796E+01  0.6523414E-08 -0.1606495E+01
  0.1920000E+01  0.4755354E+06 -0.1570796E+01  0.3689537E-01  0.3011364E+01  0.1141320E+05  0.1336942E-08  0.4382220E-01  0.3001464E+01  0.1778783E+06  0.1570796E+01  0.1396984E-08  0.3141593E+01
  0.1940000E+01  0.4658673E+06 -0.1570796E+01  0.2408292E-02  0.1298154E+01  0.1031805E+05 -0.3549227E-07  0.3938090E-01 -0.1070397E-01  0.1591575E+06  0.1570796E+01  0.3188335E-07 -0.1687905E+01
  0.1960000E+01  0.4559261E+06 -0.1570796E+01  0.1282744E-01 -0.2837147E+01  0.9311944E+04  0.1638625E-07  0.1900104E-01  0.1596130E-01  0.1410900E+06  0.1570796E+01  0.3951267E-08 -0.2356194E+01
  0.1980000E+01  0.4457223E+06 -0.1570796E+01  0.5324093E-02 -0.2957125E+01  0.8389146E+04 -0.4547182E-07  0.1442394E-01 -0.1666237E-01  0.1237037E+06  0.1570796E+01  0.4165001E-08  0.1107149E+01
  0.2000000E+01  0.4352680E+06 -0.1570796E+01  0.1451954E-01 -0.1050933E-01  0.7544172E+04  0.4651963E-07  0.8529589E-02 -0.2610057E+00  0.1070258E+06  0.1570796E+01  0.3754281E-08 -0.1695151E+01
  0.2020000E+01  0.4245753E+06 -0.1570796E+01  0.7876521E-02  0.3009202E+00  0.6771761E+04  0.6647226E-07  0.8719434E-02 -0.3303678E-01  0.9107955E+05  0.1570796E+01  0.1591445E-07  0.1929567E+01
  0.2040000E+01  0.4136563E+06 -0.1570796E+01  0.7977370E-02 -0.1730102E+00  0.6066907E+04  0.8174028E-08  0.3416044E-02 -0.5897061E+00  0.7588562E+05  0.1570796E+01  0.3399008E-07  0.1405648E+01
  0.2060000E+01  0.4025241E+06 -0.1570796E+01  0.6772514E-02 -0.2900439E+01  0.5424806E+04 -0.8157063E-07  0.3216056E-02 -0.3749447E+00  0.6146179E+05  0.1570796E+01  0.1799285E-07  0.1388628E+01
  0.2080000E+01  0.3911903E+06 -0.1570796E+01  0.1601631E-01  0.2915793E+01  0.4840928E+04  0.7092085E-08  0.4600716E-02 -0.6161771E+00  0.4782377E+05  0.1570796E+01  0.1224964E-07  0.1723446E+01
  0.2100000E+01  0.3796694E+06 -0.1570796E+01  0.1605064E-01 -0.2890850E+01  0.4310955E+04  0.8937333E-07  0.2307055E-02  0.2566890E+01  0.3498395E+05  0.1570796E+01  0.2945101E-08  0.3217506E+00
  0.2120000E+01  0.3679728E+06 -0.1570796E+01  0.1522977E-02  0.2228325E+01  0.3830791E+04 -0.1194959E-07  0.1192644E-02 -0.1119505E-01  0.2295185E+05  0.1570796E+01  0.4165001E-08  0.2677945E+01
  0.2140000E+01  0.3561162E+06 -0.1570796E+01  0.8517972E-02 -0.2106608E+01  0.3396593E+04  0.3144667E-07  0.9232956E-03 -0.1735775E+01  0.1173514E+05  0.1570796E+01  0.3357931E-07 -0.1515298E+01
  0.2160000E+01  0.3441119E+06 -0.1570796E+01  0.1177003E-01 -0.4943804E+00  0.3004719E+04 -0.6347843E-09  0.1002157E-02  0.2344082E+01  0.1338454E+04  0.1570795E+01  0.7508563E-08 -0.1446441E+01
  0.2180000E+01  0.3319748E+06 -0.1570796E+01  0.1372552E-01  0.2242157E+00  0.2651732E+04 -0.6833200E-07  0.3782798E-02 -0.2146766E+00  0.8236730E+04 -0.1570796E+01  0.1535977E-07 -0.1325818E+01
  0.2200000E+01  0.3197189E+06 -0.1570796E+01  0.1010197E-01 -0.5930298E+00  0.2334433E+04  0.3513315E-07  0.2835900E-02 -0.1875687E+00  0.1699040E+05 -0.1570796E+01  0.1214296E-07  0.1494024E+01
  0.2220000E+01  0.3073588E+06 -0.1570796E+01  0.3566805E-02  0.1026708E+01  0.2049803E+04  0.5210819E-07  0.7260251E-03  0.1199803E+01  0.2492579E+05 -0.1570796E+01  0.3678724E-07  0.1570796E+01
  0.2240000E+01  0.2949097E+06 -0.1570796E+01  0.1590505E-02  0.8600889E+00  0.1795028E+04  0.4569064E-07  0.2396585E-02  0.9145248E-01  0.3204822E+05 -0.1570796E+01  0.4393040E-08 -0.5585993E+00
  0.2260000E+01  0.2823866E+06 -0.1570796E+01  0.7696846E-02  0.2294475E+01  0.1567476E+04 -0.7422649E-07  0.7778432E-02 -0.1538005E+00  0.3836551E+05 -0.1570796E+01  0.2702441E-07 -0.1605265E+01
  0.2280000E+01  0.2698049E+06 -0.1570796E+01  0.3405959E-02 -0.6327488E+00  0.1364703E+04 -0.1851859E-06  0.2355292E-02  0.1690428E+00  0.4388769E+05 -0.1570796E+01  0.1791435E-07 -0.1727398E+01
  0.2300000E+01  0.2571799E+06 -0.1570796E+01  0.1035084E-01  0.2765740E+01  0.1184434E+04  0.3220691E-08  0.2277942E-02 -0.3008592E+01  0.4862698E+05 -0.1570796E+01  0.2220086E-07  0.1739393E+01
  0.2320000E+01  0.2445282E+06 -0.1570796E+01  0.1580445E-02 -0.1746722E+00  0.1024565E+04 -0.2140861E-07  0.5694450E-02 -0.3136987E+01  0.5259777E+05 -0.1570796E+01  0.1446551E-07  0.1506369E+01
  0.2340000E+01  0.2318655E+06 -0.1570796E+01  0.4807856E-02  0.2665171E+01  0.8831409E+03  0.2732062E-06  0.4403812E-02 -0.1461540E+00  0.5581651E+05 -0.1570796E+01  0.1585985E-07 -0.1629552E+01
  0.2360000E+01  0.2192082E+06 -0.1570796E+01  0.3560051E-02  0.1389793E+01  0.7583630E+03 -0.5030173E-08  0.3198180E-02  0.1658840E+00  0.5830160E+05 -0.1570796E+01  0.2048910E-07 -0.1570796E+01
  0.2380000E+01  0.2065725E+06 -0.1570796E+01  0.4591989E-02  0.2942568E+01  0.6485716E+03  0.2573240E-07  0.4042126E-02  0.4238060E+00  0.6007332E+05 -0.1570796E+01  0.2945101E-08 -0.1892547E+01
  0.2400000E+01  0.1939755E+06 -0.1570796E+01  0.4005861E-02 -0.8960554E+00  0.5522450E+03 -0.8116451E-07  0.2534887E-02 -0.2737794E+01  0.6115374E+05 -0.1570796E+01  0.4520754E-08 -0.1363300E+01
  0.2420000E+01  0.1814338E+06 -0.1570796E+01  0.2546804E-02  0.2306395E+01  0.4679820E+03  0.1314409E-06  0.6217354E-02 -0.2979111E+01  0.6156678E+05 -0.1570796E+01  0.8202118E-08  0.1684588E+01
  0.2440000E+01  0.1689643E+06 -0.1570796E+01  0.3254458E-02  0.5113679E+00  0.3945032E+03 -0.1541096E-06  0.2286858E-02  0.1714433E+01  0.6133759E+05 -0.1570796E+01  0.1328615E-07 -0.1711454E+01
  0.2460000E+01  0.1565844E+06 -0.1570796E+01  0.4916670E-03 -0.2411084E+01  0.3306426E+03 -0.1052771E-06  0.3885763E-02 -0.2266112E+01  0.6049329E+05 -0.1570796E+01  0.1434934E-07 -0.1505847E+01
  0.2480000E+01  0.1443109E+06 -0.1570796E+01  0.1247624E-02  0.3777385E+00  0.2753353E+03  0.1255585E-06  0.3097050E-02 -0.1270135E+01  0.5906205E+05 -0.1570796E+01  0.1742899E-07 -0.1624257E+01
  0.2500000E+01  0.1321611E+06 -0.1570796E+01  0.1825364E-02 -0.3590153E+00  0.2276145E+03 -0.2047797E-06  0.2876085E-02  0.5661474E+00  0.5707354E+05 -0.1570796E+01  0.1426088E-08 -0.1570796E+01
  0.2520000E+01  0.1201526E+06 -0.1570796E+01  0.1536581E-02  0.2209084E+01  0.1866045E+03 -0.7346590E-08  0.2440663E-02  0.2664762E+01  0.5455868E+05 -0.1570797E+01  0.8945818E-08 -0.1888432E+01
  0.2540000E+01  0.1083021E+06 -0.1570796E+01  0.3293611E-02  0.2426685E+01  0.1515125E+03 -0.1931581E-06  0.2499445E-02  0.3811795E+00  0.5154929E+05 -0.1570796E+01  0.1501758E-07  0.1570796E+01
  0.2560000E+01  0.9662669E+05 -0.1570796E+01  0.2972178E-02 -0.1342939E+01  0.1216236E+03 -0.3599598E-06  0.3714705E-02  0.9846873E+00  0.4807829E+05 -0.1570796E+01  0.4748832E-08 -0.1373401E+01
  0.2580000E+01  0.8514393E+05 -0.1570796E+01  0.1702949E-02  0.1086110E+01  0.9629550E+02 -0.2276866E-06  0.2346437E-02 -0.2030888E+01  0.4417957E+05 -0.1570796E+01  0.1919971E-08 -0.2896614E+01
  0.2600000E+01  0.7387059E+05 -0.1570796E+01  0.5264459E-02 -0.2826258E+01  0.7495145E+02  0.3180974E-07  0.2210625E-02  0.7534341E+00  0.3988766E+05 -0.1570796E+01  0.3725290E-08  0.1570796E+01
  0.2620000E+01  0.6282311E+05 -0.1570796E+01  0.6518558E-03  0.2847304E+00  0.5707447E+02 -0.5534955E-07  0.1226324E-02  0.1638798E+01  0.3523774E+05 -0.1570796E+01  0.7970837E-08  0.1687905E+01
  0.2640000E+01  0.5201863E+05 -0.1570796E+01  0.6141544E-03  0.2677945E+01  0.4220513E+02 -0.2951625E-06  0.2560776E-03 -0.3773511E+00  0.3026580E+05 -0.1570796E+01  0.7679883E-08  0.1815775E+01
  0.2660000E+01  0.4147327E+05 -0.1570796E+01  0.2406406E-02 -0.4352864E+00  0.2993343E+02 -0.4998013E-06  0.8928949E-02  0.1993207E+00  0.2500807E+05 -0.1570796E+01  0.1400085E-07 -0.1637365E+01
  0.2680000E+01  0.3120267E+05 -0.1570796E+01  0.9143988E-02  0.8688290E-01  0.1989555E+02 -0.1234302E-05  0.1311797E-02 -0.2734994E+01  0.1950089E+05 -0.1570796E+01  0.9359676E-08  0.1670465E+01
  0.2700000E+01  0.2122292E+05 -0.1570796E+01  0.4909561E-02  0.7963867E+00  0.1177052E+02 -0.9418838E-06  0.1163307E-01  0.3114518E+01  0.1378123E+05 -0.1570796E+01  0.1024455E-07 -0.1570796E+01
  0.2720000E+01  0.1154917E+05 -0.1570795E+01  0.6119079E-02  0.3131618E+01  0.5275197E+01 -0.2598779E-06  0.8178716E-02  0.3035598E+01  0.7885938E+04 -0.1570796E+01  0.1303852E-07 -0.1570796E+01
  0.2740000E+01  0.2196268E+04 -0.1570797E+01  0.6797444E-02  0.2999696E+01  0.1607654E+00 -0.1112266E-05  0.8163961E-02 -0.3034170E+01  0.1851827E+04 -0.1570801E+01  0.2507663E-08  0.1190290E+01
  0.2760000E+01  0.6821525E+04  0.1570794E+01  0.1562443E-02 -0.5554937E+00  0.3790425E+01  0.3141589E+01  0.1920656E-01 -0.1515967E+00  0.4284415E+04  0.1570792E+01  0.8433485E-08  0.1681454E+01
  0.2780000E+01  0.1549051E+05  0.1570796E+01  0.1685388E-02 -0.8366354E+00  0.6768240E+01 -0.3141592E+01  0.2613294E-02  0.1897212E+01  0.1048640E+05  0.1570796E+01  0.3725290E-08  0.1570796E+01
  0.2800000E+01  0.2379753E+05  0.1570797E+01  0.5085665E-02  0.4201730E-01  0.8937477E+01 -0.3141593E+01  0.2755233E-01  0.3126471E+01  0.1671810E+05  0.1570796E+01  0.1784765E-07 -0.1701624E+01
  0.2820000E+01  0.3172984E+05  0.1570796E+01  0.5559227E-02 -0.1543188E+00  0.1044061E+02  0.3141593E+01  0.6673802E-02  0.3100219E+01  0.2294375E+05  0.1570797E+01  0.5607304E-08  0.1653938E+01
  0.2840000E+01  0.3927592E+05  0.1570796E+01  0.2292376E-02  0.2933753E+01  0.1140043E+02  0.3141593E+01  0.1194934E-01 -0.3037333E+01  0.2912865E+05  0.1570796E+01  0.1400085E-07 -0.1637365E+01
  0.2860000E+01  0.4642468E+05  0.1570796E+01  0.2384720E-02 -0.3013269E+01  0.1192202E+02 -0.3141592E+01  0.1622699E-02 -0.3449926E+00  0.3523862E+05  0.1570796E+01  0.4656613E-08  0.1570796E+01
  0.2880000E+01  0.5316596E+05  0.1570796E+01  0.5262695E-02 -0.3051589E+01  0.1209493E+02 -0.3141593E+01  0.6618939E-02 -0.2984574E+01  0.4124019E+05  0.1570796E+01  0.2795520E-07 -0.1537475E+01
  0.2900000E+01  0.5949023E+05  0.1570797E+01  0.1731805E-02  0.1325515E+00  0.1199508E+02 -0.3141593E+01  0.1450443E-01  0.2534853E-01  0.4710090E+05  0.1570796E+01  0.9313226E-09  0.1570796E+01
  0.2920000E+01  0.6538924E+05  0.1570796E+01  0.8157389E-03 -0.3010277E+01  0.1168635E+02 -0.3141592E+01  0.1457093E-01 -0.8381539E-01  0.5278959E+05  0.1570796E+01  0.2945101E-08 -0.1892547E+01
  0.2940000E+01  0.7085558E+05  0.1570796E+01  0.4369299E-02 -0.3064687E+01  0.1122217E+02 -0.3141593E+01  0.3848650E-02  0.1623512E-01  0.5827631E+05  0.1570796E+01  0.8381903E-08  0.1570796E+01
  0.2960000E+01  0.7588259E+05  0.1570796E+01  0.2545844E-02  0.2586011E+01  0.1064679E+02  0.3141593E+01  0.5395100E-02  0.3067493E+01  0.6353180E+05  0.1570796E+01  0.2793968E-08  0.1570796E+01
  0.2980000E+01  0.8046496E+05  0.1570796E+01  0.2721588E-02 -0.1236596E+00  0.9996664E+01 -0.3141592E+01  0.4409493E-02 -0.3071912E+01  0.6852882E+05  0.1570796E+01  0.3166497E-07 -0.1570796E+01
  0.3000000E+01  0.8459852E+05  0.1570796E+01  0.1201872E-02 -0.1041808E+01  0.9301359E+01 -0.3141592E+01  0.2149585E-01 -0.3087735E+01  0.7324159E+05  0.1570796E+01  0.6520297E-08 -0.1552941E+01
  0.3020000E+01  0.8828002E+05  0.1570796E+01  0.2494661E-02 -0.2938349E+01  0.8584674E+01 -0.3141593E+01  0.1624395E-02  0.2562172E+01  0.7764570E+05  0.1570796E+01  0.1863554E-07  0.1539557E+01