VARIABLES="w (rad/s)"
"A   1   1" "B   1   1"
"A   1   2" "B   1   2"
"A   1   3" "B   1   3"
"A   1   4" "B   1   4"
"A   1   5" "B   1   5"
"A   1   6" "B   1   6"
Zone t="Motion of body    1 in DoF   1",I=   300,F=POINT
  0.2000000E-01  0.5983357E+06 -0.1423867E-06 -0.7569790E-02  0.3733402E-12 -0.7777214E-01 -0.2463920E-05  0.3278255E-02 -0.2424505E-11 -0.1452023E+07  0.7341324E-06 -0.3783498E-07 -0.3438954E-18
  0.4000000E-01  0.5985414E+06  0.4495793E-04  0.2992153E-02 -0.2526868E-11 -0.7796288E-01 -0.1127266E-04 -0.5340576E-02  0.5663026E-11 -0.1452396E+07 -0.8768636E-04 -0.1018634E-07 -0.5963112E-18
  0.6000000E-01  0.5984389E+06  0.1549705E-02  0.1325607E-01 -0.3976197E-10 -0.2479553E-01 -0.6453957E-04  0.2595584E-01  0.1119247E-09 -0.1449215E+07 -0.3850383E-02 -0.9216214E-08  0.4076600E-16
  0.8000000E-01  0.5992899E+06  0.1032917E-01  0.6914139E-02 -0.4320100E-10 -0.7820129E-01 -0.1408723E-03 -0.2044439E-01  0.2282832E-09 -0.1453376E+07 -0.2395210E-01  0.1455192E-07  0.4024558E-15
  0.9999999E-01  0.6023026E+06  0.5108510E-01 -0.1106262E-02  0.9586074E-09 -0.7385255E-01 -0.2970531E-03 -0.1441956E-01 -0.2959496E-08 -0.1463329E+07 -0.1222669E+00  0.9313227E-08 -0.7216450E-15
  0.1200000E+00  0.6053339E+06  0.1846893E+00 -0.5578995E-02  0.7457857E-09 -0.8970897E-01 -0.4722002E-03  0.1688004E-01  0.9080395E-08 -0.1468390E+07 -0.4441102E+00  0.3880511E-08  0.6883383E-14
  0.1400000E+00  0.6072397E+06  0.5407996E+00 -0.2316066E-03  0.7166818E-08 -0.1044682E+00 -0.8764222E-03 -0.2611705E-01 -0.6519258E-08 -0.1470599E+07 -0.1292706E+01 -0.2910383E-07  0.1376677E-13
  0.1600000E+00  0.6084847E+06  0.1369497E+01 -0.1907349E-03 -0.8556526E-08 -0.6074905E-01 -0.8739803E-03 -0.3105402E-01 -0.9307405E-07 -0.1473980E+07 -0.3268286E+01 -0.1091394E-07  0.7549517E-13
  0.1800000E+00  0.6100984E+06  0.3107378E+01  0.7396274E-02  0.1338776E-07 -0.8248223E-01 -0.1420529E-02 -0.2500746E-01 -0.6984919E-07 -0.1473501E+07 -0.7397775E+01 -0.9701276E-08  0.1207923E-12
  0.2000000E+00  0.6108522E+06  0.6457170E+01  0.4243851E-02  0.1256121E-06 -0.6130219E-01 -0.1192400E-02 -0.1983643E-01  0.8358620E-07 -0.1477061E+07 -0.1536238E+02 -0.2910383E-08 -0.7105427E-13
  0.2200000E+00  0.6126446E+06  0.1250938E+02 -0.3233823E-02 -0.2444722E-07 -0.5954396E-01 -0.2075335E-02  0.0000000E+00 -0.3920868E-06 -0.1478176E+07 -0.2968460E+02 -0.7937408E-08  0.1421085E-12
  0.2400000E+00  0.6142047E+06  0.2284637E+02  0.1285871E-01  0.3227033E-06 -0.6484985E-01 -0.2942644E-02 -0.1125336E-01 -0.1955777E-07 -0.1479930E+07 -0.5410014E+02 -0.1406685E-07  0.3979039E-12
  0.2600000E+00  0.6156602E+06  0.3969573E+02 -0.4357558E-02  0.3483146E-06 -0.5639884E-01 -0.3050305E-02 -0.2120091E-01 -0.5979091E-06 -0.1484368E+07 -0.9384225E+02  0.6716269E-08 -0.8242296E-12
  0.2800000E+00  0.6180002E+06  0.6616696E+02  0.4495893E-03 -0.4777685E-06 -0.1714979E+00 -0.5941026E-02 -0.2861023E-02  0.4135072E-06 -0.1485787E+07 -0.1559237E+03  0.5820766E-08 -0.5684342E-12
  0.3000000E+00  0.6199194E+06  0.1063023E+03 -0.4310608E-02 -0.1374632E-05 -0.2670797E+00 -0.1309790E-01  0.2110799E-02 -0.7525086E-06 -0.1488822E+07 -0.2498529E+03  0.1241763E-07 -0.3296918E-11
  0.3200000E+00  0.6217872E+06  0.1654095E+03  0.2503395E-03  0.2261251E-05 -0.2616405E+00 -0.1306534E-01 -0.3612041E-02 -0.1497567E-05 -0.1494319E+07 -0.3880220E+03  0.2182787E-08 -0.2728484E-11
  0.3400000E+00  0.6244928E+06  0.2504296E+03 -0.4319584E-02  0.9424984E-06 -0.1669491E+00 -0.1184648E-01  0.1617880E-01  0.4023314E-06 -0.1497786E+07 -0.5855004E+03  0.6163164E-08 -0.3865352E-11
  0.3600000E+00  0.6274388E+06  0.3698803E+03 -0.1642439E-02 -0.2071261E-05 -0.1485189E+00 -0.9679854E-02  0.7724761E-02  0.1892447E-05 -0.1500740E+07 -0.8614781E+03 -0.5174014E-08 -0.1773515E-10
  0.3800000E+00  0.6303375E+06  0.5342520E+03  0.3302725E-02 -0.3427267E-06 -0.8143375E-01 -0.7079899E-02  0.5942897E-02 -0.1400709E-05 -0.1506058E+07 -0.1240292E+04  0.1776865E-07 -0.4547474E-12
  0.4000000E+00  0.6331306E+06  0.7562167E+03  0.8106232E-03  0.4291534E-05 -0.1544189E+00 -0.1422262E-01  0.4444122E-02 -0.7599592E-05 -0.1512911E+07 -0.1750685E+04 -0.1920853E-07  0.3274181E-10
  0.4200000E+00  0.6368091E+06  0.1051826E+04  0.1224336E-01  0.2318621E-04 -0.1838321E+00 -0.2697265E-01  0.7811047E-02 -0.5137920E-04 -0.1518192E+07 -0.2425009E+04  0.1607640E-07 -0.3183231E-10
  0.4400000E+00  0.6407495E+06  0.1439354E+04  0.8149581E-03  0.2205372E-05 -0.1487732E+00 -0.2577019E-01 -0.6883794E-02  0.2282858E-04 -0.1523373E+07 -0.3303544E+04  0.5291605E-09  0.5093170E-10
  0.4600000E+00  0.6447952E+06  0.1940277E+04  0.3317128E-03  0.6943941E-05 -0.9294593E-01 -0.1569939E-01  0.8956246E-03  0.8898973E-04 -0.1529303E+07 -0.4433247E+04 -0.8604610E-08  0.8731149E-10
  0.4800000E+00  0.6488978E+06  0.2579569E+04 -0.9759268E-02  0.1007318E-04 -0.1042684E+00 -0.1089668E-01 -0.2559026E-02  0.9179115E-05 -0.1536545E+07 -0.5868733E+04  0.3395447E-07  0.6002665E-10
  0.5000000E+00  0.6533466E+06  0.3386550E+04  0.5187988E-02 -0.7152557E-06 -0.1326904E+00 -0.1812792E-01 -0.4196167E-02  0.7307529E-04 -0.1546047E+07 -0.7674253E+04 -0.1396984E-08 -0.5456968E-10
  0.5200000E+00  0.6581786E+06  0.4394648E+04 -0.4152151E-02  0.3123283E-04 -0.1578111E+00 -0.2728176E-01  0.2596929E-02 -0.5865097E-04 -0.1554022E+07 -0.9909759E+04 -0.1791005E-07  0.1818989E-10
  0.5400000E+00  0.6634954E+06  0.5642552E+04  0.8477105E-03 -0.1430511E-04 -0.1813535E+00 -0.3868771E-01  0.3871211E-02 -0.1597404E-04 -0.1561198E+07 -0.1265148E+05  0.7761021E-08 -0.1527951E-09
  0.5600000E+00  0.6692313E+06  0.7173564E+04 -0.6961823E-02 -0.1096725E-04 -0.1731873E+00 -0.3711414E-01  0.1144409E-01 -0.9131432E-04 -0.1569392E+07 -0.1599062E+05 -0.2161999E-07 -0.4365575E-10
  0.5800000E+00  0.6752352E+06  0.9035069E+04  0.1157563E-02 -0.2241135E-04 -0.1673731E+00 -0.5072212E-01 -0.4617099E-02 -0.1854897E-03 -0.1578626E+07 -0.2002279E+05  0.0000000E+00  0.2401066E-09
  0.6000000E+00  0.6809200E+06  0.1127568E+05 -0.5238851E-02 -0.1125336E-03 -0.1531982E+00 -0.5506706E-01  0.4488627E-02 -0.2169609E-03 -0.1588085E+07 -0.2484622E+05  0.0000000E+00 -0.2182787E-09
  0.6199999E+00  0.6869661E+06  0.1395669E+05 -0.2104237E-02  0.3099442E-04 -0.1247283E+00 -0.6874657E-01 -0.5562076E-02  0.2093315E-03 -0.1598736E+07 -0.3057916E+05 -0.1502134E-07 -0.2328306E-09
  0.6400000E+00  0.6933532E+06  0.1714027E+05 -0.7712841E-02 -0.1811981E-03 -0.9026527E-01 -0.9071541E-01  0.2026558E-02  0.1931190E-03 -0.1609319E+07 -0.3732344E+05 -0.5093170E-08 -0.2473826E-09
  0.6600000E+00  0.7003158E+06  0.2089866E+05 -0.1109730E-02 -0.2517700E-03 -0.8600408E-01 -0.1058712E+00  0.1999826E-01  0.5550385E-03 -0.1619147E+07 -0.4518857E+05 -0.2892744E-07  0.8440111E-09
  0.6799999E+00  0.7072779E+06  0.2530086E+05  0.3186395E-02 -0.3528595E-04 -0.1381369E+00 -0.1292572E+00  0.8033305E-02 -0.7686615E-03 -0.1628470E+07 -0.5430548E+05  0.3355501E-07  0.4074536E-09
  0.7000000E+00  0.7144009E+06  0.3042882E+05  0.2179827E-04  0.4739761E-03 -0.1911272E+00 -0.1214447E+00 -0.1852853E-01 -0.9441376E-04 -0.1637697E+07 -0.6481261E+05  0.3392675E-07 -0.1222361E-08
  0.7200000E+00  0.7214626E+06  0.3636114E+05  0.5213419E-02 -0.3767014E-03 -0.1379225E+00 -0.7046127E-01  0.2182855E-02  0.5340576E-03 -0.1646558E+07 -0.7683651E+05  0.5174014E-08 -0.5529728E-09
  0.7399999E+00  0.7285812E+06  0.4318779E+05  0.8103656E-02 -0.3843307E-03 -0.6066401E-01 -0.3182220E-01  0.1620731E-01  0.7095337E-03 -0.1655794E+07 -0.9053632E+05  0.3775633E-08  0.8149073E-09
  0.7600000E+00  0.7355422E+06  0.5099077E+05 -0.1967581E-02 -0.1049042E-03 -0.2019782E-01 -0.9056091E-02  0.5240189E-02  0.1111984E-02 -0.1664935E+07 -0.1060347E+06  0.3186103E-07  0.1396984E-08
  0.7800000E+00  0.7422142E+06  0.5985193E+05  0.1788017E-01  0.7877350E-03  0.1788017E-01  0.5630493E-01  0.4558074E-02  0.1308441E-02 -0.1674357E+07 -0.1234813E+06 -0.3164109E-07  0.8731149E-09
  0.8000000E+00  0.7485354E+06  0.6983870E+05  0.6484985E-03 -0.5245209E-03  0.8033752E-01  0.1339874E+00  0.2250671E-02 -0.2975464E-03 -0.1682313E+07 -0.1428800E+06 -0.4540198E-07 -0.5820766E-09
  0.8200000E+00  0.7548468E+06  0.8103248E+05  0.1507271E-02  0.7438660E-04  0.9110614E-01  0.1563416E+00  0.2754025E-02 -0.2511978E-02 -0.1687726E+07 -0.1642039E+06 -0.2839398E-07  0.2328306E-09
  0.8400000E+00  0.7605404E+06  0.9350040E+05 -0.1725696E-02 -0.8964539E-04  0.5398705E-01  0.1302719E+00  0.1536778E-01 -0.1541138E-02 -0.1691289E+07 -0.1875833E+06  0.2439178E-07  0.2095476E-08
  0.8600000E+00  0.7659074E+06  0.1073378E+06 -0.1664273E-01 -0.4997253E-03  0.4598928E-01  0.1084137E+00  0.1506362E-01  0.3093719E-02 -0.1693725E+07 -0.2131301E+06  0.2382453E-07  0.6519258E-08
  0.8800001E+00  0.7703941E+06  0.1225660E+06 -0.9536742E-02  0.3814697E-05  0.5472356E-01  0.9690857E-01 -0.5236538E-02 -0.2597809E-02 -0.1693852E+07 -0.2407540E+06  0.4444948E-07  0.5820766E-08
  0.9000000E+00  0.7740212E+06  0.1392324E+06 -0.6290012E-02  0.6484985E-04  0.8931478E-01  0.7875061E-01 -0.1246134E-01  0.6027222E-03 -0.1692761E+07 -0.2705430E+06  0.2173086E-07 -0.3026798E-08
  0.9200000E+00  0.7763588E+06  0.1573174E+06 -0.1061481E-02  0.1564026E-03  0.1047549E+00  0.6353760E-01 -0.5639118E-02 -0.1396179E-02 -0.1689086E+07 -0.3022915E+06  0.2530768E-07 -0.1164153E-08
  0.9399999E+00  0.7776032E+06  0.1768300E+06  0.6785292E-02 -0.1388550E-02  0.9551354E-01  0.8573914E-01  0.2757945E-01  0.2544403E-02 -0.1682889E+07 -0.3358583E+06  0.8916920E-08  0.1396984E-08
  0.9600000E+00  0.7774751E+06  0.1977212E+06  0.5467733E-02 -0.2319336E-02  0.7737478E-01  0.6636047E-01 -0.4593532E-02 -0.1937866E-02 -0.1674682E+07 -0.3711660E+06  0.2910383E-08 -0.2328306E-08
  0.9800000E+00  0.7759815E+06  0.2199319E+06  0.1209804E-01  0.8468628E-03  0.5929129E-01  0.3422546E-01 -0.1510309E-01  0.3143311E-02 -0.1664384E+07 -0.4080104E+06 -0.2850987E-07  0.2095476E-08
  0.9999999E+00  0.7730306E+06  0.2433186E+06 -0.5416871E-02 -0.2494812E-02  0.4693604E-01  0.3208923E-01 -0.1017761E-01 -0.4440308E-02 -0.1651541E+07 -0.4459507E+06 -0.8381904E-08  0.1280569E-07
  0.1020000E+01  0.7684760E+06  0.2676080E+06  0.2692728E-02  0.1220703E-03  0.4565669E-01  0.1562500E-01  0.2236460E-01  0.7019043E-02 -0.1634441E+07 -0.4840162E+06 -0.1552204E-07 -0.1862645E-08
  0.1040000E+01  0.7623008E+06  0.2927204E+06 -0.1687270E-02  0.3585815E-03  0.3057627E-01  0.3118896E-01  0.5575327E-03 -0.6225586E-02 -0.1614549E+07 -0.5222430E+06  0.3582010E-08 -0.1536682E-07
  0.1060000E+01  0.7541677E+06  0.3183989E+06  0.1131454E-01  0.4859924E-02  0.3644836E-01  0.3518677E-01  0.3022968E-03  0.1228333E-02 -0.1591058E+07 -0.5599638E+06  0.5183777E-07  0.1350418E-07
  0.1080000E+01  0.7444515E+06  0.3444999E+06 -0.1893220E-02 -0.1411438E-02  0.4323323E-01  0.2551270E-01  0.1612063E-01  0.1319885E-01 -0.1564866E+07 -0.5968978E+06  0.6898686E-08 -0.1583248E-07
  0.1100000E+01  0.7330342E+06  0.3707777E+06  0.3495650E-02 -0.7324219E-03  0.3584428E-01  0.1983643E-01 -0.2663352E-02 -0.2357483E-02 -0.1536338E+07 -0.6326391E+06 -0.1523982E-07  0.4656613E-09
  0.1120000E+01  0.7197367E+06  0.3968711E+06 -0.8855547E-03  0.1724243E-02  0.1765660E-01  0.2377319E-01 -0.4618508E-02 -0.9231567E-03 -0.1505357E+07 -0.6665917E+06 -0.5820766E-08 -0.7450581E-08
  0.1140000E+01  0.7050359E+06  0.4226293E+06  0.1525879E-02  0.1922607E-02  0.2553839E-01  0.2346802E-01 -0.2101430E-02  0.5645752E-02 -0.1472882E+07 -0.6985586E+06  0.1143729E-07  0.7916242E-08
  0.1160000E+01  0.6888978E+06  0.4476041E+06  0.2538747E-02  0.1998901E-02  0.1678467E-01  0.1165771E-01 -0.1183872E-03 -0.4646301E-02 -0.1438559E+07 -0.7275319E+06  0.8028643E-09  0.1024455E-07
  0.1180000E+01  0.6715382E+06  0.4715117E+06 -0.3905216E-02  0.3753662E-02  0.4810398E-02  0.3948975E-01 -0.1653898E-01  0.1190186E-02 -0.1402980E+07 -0.7531673E+06  0.2920249E-07 -0.2048910E-07
  0.1200000E+01  0.6530822E+06  0.4941590E+06 -0.1627604E-02 -0.1617432E-02  0.6459554E-02  0.1751709E-01  0.1856486E-01  0.1640320E-02 -0.1366690E+07 -0.7753159E+06  0.1319374E-07 -0.1583248E-07
  0.1220000E+01  0.6334196E+06  0.5151593E+06  0.3089279E-02 -0.5096436E-02  0.2531458E-01  0.7843018E-02  0.2176253E-02  0.5294800E-02 -0.1329112E+07 -0.7930874E+06 -0.2290137E-08 -0.2142042E-07
  0.1240000E+01  0.6133234E+06  0.5346650E+06  0.4749913E-02 -0.5630493E-02 -0.1575101E-02  0.6286621E-02  0.1599712E-03  0.4035950E-02 -0.1292167E+07 -0.8073320E+06 -0.9763865E-08  0.2793968E-08
  0.1260000E+01  0.5926762E+06  0.5523241E+06  0.1138354E-02 -0.9460449E-03  0.8138021E-02  0.2813721E-01  0.8477105E-04  0.1086426E-01 -0.1255271E+07 -0.8171790E+06  0.8869739E-08  0.1117587E-07
  0.1280000E+01  0.5715356E+06  0.5679539E+06  0.5245209E-02  0.7034302E-02  0.2534389E-01  0.1159668E-01 -0.1705885E-01  0.2593994E-02 -0.1219046E+07 -0.8228998E+06 -0.1382432E-07 -0.8381903E-08
  0.1300000E+01  0.5505623E+06  0.5816546E+06  0.4342886E-03 -0.4180908E-02  0.7723295E-02  0.1004028E-01 -0.1097459E-01  0.1596832E-01 -0.1184528E+07 -0.8249581E+06  0.1432804E-08 -0.1210719E-07
  0.1320000E+01  0.5298189E+06  0.5933202E+06  0.1768632E-02 -0.7034302E-02 -0.1068115E-01  0.2273560E-01 -0.5305897E-02 -0.1144409E-03 -0.1151383E+07 -0.8230285E+06  0.3527737E-08  0.8381903E-08
  0.1340000E+01  0.5092869E+06  0.6027916E+06 -0.5716352E-02  0.8911133E-02 -0.7242231E-02  0.2978516E-01  0.1241200E-02 -0.8621216E-03 -0.1119591E+07 -0.8168488E+06  0.2085051E-08 -0.1583248E-07
  0.1360000E+01  0.4892000E+06  0.6102718E+06  0.3051758E-02 -0.8239746E-03 -0.3666597E-01  0.3469849E-01 -0.1051286E-01  0.1071930E-01 -0.1089980E+07 -0.8075524E+06 -0.8217552E-08  0.1583248E-07
  0.1380000E+01  0.4697637E+06  0.6158926E+06 -0.3715183E-02  0.2655029E-02 -0.2479000E-01  0.2621460E-01  0.1943837E-01  0.7003784E-02 -0.1062758E+07 -0.7954421E+06 -0.1282256E-07 -0.2142042E-07
  0.1400000E+01  0.4505964E+06  0.6191301E+06 -0.1514980E-02  0.3601074E-02 -0.3799438E-01  0.3942871E-01 -0.6332397E-02  0.6973267E-02 -0.1036655E+07 -0.7789091E+06 -0.1263938E-07 -0.3632158E-07
  0.1420000E+01  0.4326289E+06  0.6210487E+06 -0.1644081E-02  0.4333496E-02 -0.8037729E-01  0.2545166E-01 -0.1156229E-01 -0.4455566E-02 -0.1013967E+07 -0.7613604E+06  0.2623444E-08  0.9313226E-09
  0.1440000E+01  0.4154506E+06  0.6209782E+06  0.2935197E-02  0.1586914E-02 -0.6097158E-01  0.1632690E-01  0.1938078E-01 -0.5233765E-02 -0.9925548E+06 -0.7398032E+06 -0.1746230E-07  0.0000000E+00
  0.1460000E+01  0.3993117E+06  0.6195774E+06  0.6218479E-02 -0.1129150E-02 -0.6596813E-01  0.1074219E-01 -0.4514929E-02  0.9109497E-02 -0.9739134E+06 -0.7170718E+06 -0.1467152E-07  0.6519258E-08
  0.1480000E+01  0.3839085E+06  0.6164830E+06 -0.2618738E-02 -0.1831055E-03 -0.8722254E-01  0.2153015E-01  0.1525879E-02 -0.6439209E-02 -0.9570714E+06 -0.6919631E+06  0.1038299E-07  0.2421439E-07
  0.1500000E+01  0.3695941E+06  0.6123405E+06 -0.1627604E-02  0.2166748E-02 -0.9220377E-01  0.5691528E-02  0.5727132E-02  0.9613037E-03 -0.9428331E+06 -0.6666469E+06  0.2793968E-08  0.3073364E-07
  0.1520000E+01  0.3562337E+06  0.6069716E+06  0.7930555E-03 -0.8117676E-02 -0.9213498E-01  0.9918213E-03 -0.5772240E-02  0.1036072E-01 -0.9303703E+06 -0.6397306E+06 -0.7965259E-08 -0.2700835E-07
  0.1540000E+01  0.3439024E+06  0.6006625E+06 -0.8164443E-02  0.3570557E-02 -0.1178097E+00 -0.5035400E-03 -0.1446613E-02  0.3814697E-02 -0.9201496E+06 -0.6125222E+06 -0.1451412E-07  0.4377216E-07
  0.1560000E+01  0.3324851E+06  0.5932718E+06 -0.1809536E-02 -0.3662109E-02 -0.8159540E-01 -0.1525879E-04  0.3354977E-02 -0.4013062E-02 -0.9114113E+06 -0.5838789E+06 -0.4776013E-08  0.2980232E-07
  0.1580000E+01  0.3220642E+06  0.5853424E+06  0.1352045E-02  0.3143311E-02 -0.9147547E-01 -0.2075195E-02 -0.7957748E-02  0.7617950E-02 -0.9048262E+06 -0.5558084E+06 -0.2652501E-08 -0.4004687E-07
  0.1600000E+01  0.3124092E+06  0.5765258E+06 -0.5650520E-02 -0.2929688E-02 -0.7097244E-01  0.2029419E-02 -0.1049042E-02 -0.4867554E-02 -0.8997163E+06 -0.5273988E+06 -0.6693881E-08  0.1117587E-07
  0.1620000E+01  0.3034724E+06  0.5667768E+06 -0.2359461E-02  0.7019043E-03 -0.5762548E-01  0.2792358E-02  0.1014427E-01 -0.1937866E-02 -0.8957704E+06 -0.4975304E+06 -0.1322248E-07  0.1117587E-07
  0.1640000E+01  0.2955740E+06  0.5572064E+06  0.4047301E-03 -0.1831055E-03 -0.7417260E-01 -0.3860474E-02  0.6512898E-02  0.8266449E-02 -0.8938198E+06 -0.4703025E+06 -0.2839398E-08 -0.1955777E-07
  0.1660000E+01  0.2884064E+06  0.5468156E+06  0.2054421E-02  0.1800537E-02 -0.5039077E-01 -0.3265381E-02 -0.1296078E-02  0.2773285E-02 -0.8925871E+06 -0.4408924E+06 -0.4628561E-08 -0.1024455E-07
  0.1680000E+01  0.2819955E+06  0.5363262E+06  0.1544044E-03 -0.5645752E-02 -0.7104420E-01  0.2822876E-02  0.5267915E-02 -0.1355362E-01 -0.8927009E+06 -0.4129583E+06 -0.6929484E-08  0.6519258E-08
  0.1700000E+01  0.2761882E+06  0.5254998E+06  0.4548465E-02 -0.3936768E-02 -0.9090648E-01 -0.2960205E-02  0.1177619E-01 -0.7629395E-04 -0.8937974E+06 -0.3854994E+06 -0.1232633E-08 -0.7450581E-08
  0.1720000E+01  0.2709696E+06  0.5143590E+06  0.1477086E-02 -0.7904053E-02 -0.6685479E-01  0.1350403E-02 -0.2297690E-02 -0.1667023E-02 -0.8957016E+06 -0.3585342E+06  0.1082933E-08 -0.1024455E-07
  0.1740000E+01  0.2664731E+06  0.5034110E+06  0.1359260E-03  0.3967285E-02 -0.6008806E-01  0.2357483E-02  0.1020760E-01 -0.1390457E-02 -0.8985107E+06 -0.3328080E+06  0.2676214E-09  0.1490116E-07
  0.1760000E+01  0.2625279E+06  0.4924316E+06  0.9970232E-04 -0.2319336E-02 -0.5080483E-01  0.3738403E-02 -0.6667051E-02 -0.5870819E-02 -0.9020045E+06 -0.3081249E+06 -0.5027025E-08  0.2048910E-07
  0.1780000E+01  0.2591013E+06  0.4812976E+06 -0.2963891E-02 -0.1495361E-02 -0.8987255E-01  0.4409790E-02  0.3206060E-02 -0.1239777E-02 -0.9061063E+06 -0.2840444E+06 -0.1569645E-08  0.1583248E-07
  0.1800000E+01  0.2561765E+06  0.4700456E+06  0.4009671E-02  0.1129150E-01 -0.7480197E-01  0.9735107E-02 -0.6535848E-02  0.1296997E-03 -0.9107179E+06 -0.2600101E+06  0.4268562E-08  0.1303852E-07
  0.1820000E+01  0.2536795E+06  0.4591383E+06 -0.1345624E-02  0.1190186E-02 -0.5476396E-01  0.1139832E-01 -0.6028060E-02 -0.1487732E-03 -0.9159741E+06 -0.2379467E+06 -0.1144964E-07 -0.1396984E-07
  0.1840000E+01  0.2515979E+06  0.4484512E+06 -0.9080638E-03  0.5187988E-03 -0.5264282E-01  0.6912231E-02  0.4478123E-03  0.2273560E-02 -0.9215716E+06 -0.2173561E+06  0.5567689E-08  0.1303852E-07
  0.1860000E+01  0.2497776E+06  0.4371883E+06 -0.7557612E-03 -0.2014160E-02 -0.3616169E-01  0.6816864E-02  0.6308607E-02 -0.8754730E-03 -0.9274819E+06 -0.1955304E+06 -0.1032717E-08  0.0000000E+00
  0.1880000E+01  0.2483419E+06  0.4264796E+06  0.1496457E-02  0.3387451E-02 -0.2899170E-01  0.8838654E-02 -0.6022352E-02  0.9727478E-03 -0.9337243E+06 -0.1759296E+06  0.9288457E-09 -0.4656613E-08
  0.1900000E+01  0.2472579E+06  0.4161752E+06 -0.2761640E-02  0.1556396E-02 -0.3941586E-01  0.8049011E-02 -0.5204050E-02 -0.1140594E-02 -0.9401582E+06 -0.1579660E+06  0.2895065E-08  0.1862645E-08
  0.1920000E+01  0.2465325E+06  0.4057322E+06 -0.1362960E-02  0.4486084E-02 -0.7111232E-01  0.5012512E-02  0.7104874E-02 -0.5016327E-03 -0.9469997E+06 -0.1390631E+06  0.3713770E-08 -0.1862645E-07
  0.1940000E+01  0.2460292E+06  0.3957095E+06  0.2822249E-02  0.8544922E-03 -0.5650471E-01  0.5134583E-02 -0.2597927E-01  0.1244545E-02 -0.9537654E+06 -0.1221845E+06  0.2771615E-08 -0.3725290E-08
  0.1960000E+01  0.2457048E+06  0.3858701E+06  0.2930967E-02  0.3662109E-03 -0.6380665E-01  0.4417419E-02 -0.4982462E-03  0.3619194E-02 -0.9606381E+06 -0.1063243E+06 -0.7383612E-08  0.9313226E-09
  0.1980000E+01  0.2456064E+06  0.3758698E+06 -0.7024919E-03  0.6042480E-02 -0.4562224E-01  0.3211975E-02  0.1028042E-01  0.1697540E-03 -0.9676441E+06 -0.9026513E+05 -0.2587007E-08  0.1024455E-07
  0.2000000E+01  0.2456835E+06  0.3665247E+06 -0.2083778E-02  0.1831055E-03 -0.3741455E-01  0.4890442E-02 -0.1033020E-01 -0.5960464E-03 -0.9743262E+06 -0.7657042E+05 -0.4365575E-10  0.1210719E-07
  0.2020000E+01  0.2460311E+06  0.3572578E+06  0.2058426E-03 -0.2990723E-02 -0.1244876E-01  0.9788513E-02 -0.2590973E-02 -0.3433228E-03 -0.9814633E+06 -0.6254412E+05  0.1354337E-08  0.3725290E-08
  0.2040000E+01  0.2464645E+06  0.3483871E+06  0.1461366E-02 -0.1831055E-03 -0.3805722E-01  0.7596970E-02 -0.1305225E-01 -0.1020908E-02 -0.9880696E+06 -0.5053648E+05  0.3880511E-08 -0.9313226E-09
  0.2060000E+01  0.2471368E+06  0.3394660E+06 -0.7049783E-02  0.1068115E-02 -0.3635444E-01  0.8539200E-02  0.2185118E-02  0.9145737E-03 -0.9949403E+06 -0.3820016E+05  0.9748371E-08  0.1769513E-07
  0.2080000E+01  0.2479229E+06  0.3308919E+06 -0.2161356E-02  0.6439209E-02 -0.3307049E-01  0.3520966E-02 -0.1125336E-01  0.4844666E-03 -0.1001749E+07 -0.2671240E+05 -0.1298479E-07  0.0000000E+00
  0.2100000E+01  0.2487229E+06  0.3227794E+06 -0.6734758E-02 -0.3051758E-03 -0.3391811E-01  0.8506775E-03 -0.1700265E-02 -0.8459091E-03 -0.1008319E+07 -0.1672960E+05 -0.5377280E-08  0.1769513E-07
  0.2120000E+01  0.2495707E+06  0.3151181E+06  0.2152065E-02  0.2593994E-02  0.1661193E-01  0.4634857E-02 -0.6225874E-02 -0.8616447E-03 -0.1014448E+07 -0.8107917E+04  0.4393031E-09  0.1676381E-07
  0.2140000E+01  0.2505938E+06  0.3068392E+06 -0.2637310E-02 -0.2441406E-02  0.2153343E-01  0.7140160E-02  0.8599112E-02  0.6532669E-04 -0.1021024E+07  0.1816548E+04 -0.1044474E-07  0.4656613E-08
  0.2160000E+01  0.2516621E+06  0.2989936E+06  0.2628786E-02 -0.4882812E-03  0.4724573E-01  0.5816460E-02  0.9232980E-02  0.6818771E-04 -0.1027502E+07  0.1075713E+05  0.7545437E-08  0.1210719E-07
  0.2180000E+01  0.2526682E+06  0.2917493E+06 -0.4462146E-03 -0.6866455E-03  0.4093275E-01 -0.2495003E-01 -0.2078835E-01  0.2677441E-03 -0.1033183E+07  0.1789883E+05 -0.1639427E-07 -0.2328306E-07
  0.2200000E+01  0.2538466E+06  0.2846959E+06 -0.1111464E-02 -0.2258301E-02  0.8284135E-01  0.1000500E-01  0.1401034E-02  0.8177757E-04 -0.1039170E+07  0.2509725E+05 -0.9101561E-08 -0.2793968E-08
  0.2220000E+01  0.2551243E+06  0.2777764E+06  0.1886729E-02  0.9155273E-03  0.1038422E+00  0.7964134E-02 -0.1791189E-01 -0.2110004E-03 -0.1045179E+07  0.3212616E+05  0.5139055E-08  0.1396984E-07
  0.2240000E+01  0.2563814E+06  0.2711598E+06  0.3170967E-02 -0.1525879E-03  0.8732932E-01  0.6229401E-02 -0.8773804E-02 -0.7002354E-03 -0.1050691E+07  0.3826733E+05 -0.1029028E-07  0.2048910E-07
  0.2260000E+01  0.2576072E+06  0.2646210E+06 -0.1193359E-02 -0.3509521E-03  0.8669153E-01  0.2866745E-02 -0.2124077E-01 -0.3314018E-04 -0.1056040E+07  0.4391078E+05  0.1019922E-07  0.4656613E-08
  0.2280000E+01  0.2589566E+06  0.2580837E+06 -0.7478814E-03  0.1754761E-02  0.7616010E-01  0.2196312E-02 -0.2596671E-02 -0.9195805E-03 -0.1061574E+07  0.4961056E+05  0.9292802E-08  0.2793968E-08
  0.2300000E+01  0.2602402E+06  0.2518846E+06 -0.2265599E-02  0.2944946E-02  0.3216287E-01  0.4597664E-02 -0.5639118E-02  0.3693104E-03 -0.1066396E+07  0.5453308E+05  0.7794765E-08  0.1117587E-07
  0.2320000E+01  0.2616001E+06  0.2460643E+06 -0.1787317E-02  0.1678467E-02  0.4167228E-01  0.3416061E-02  0.3814697E-02 -0.1339912E-03 -0.1071372E+07  0.5893922E+05 -0.3111099E-08 -0.1769513E-07
  0.2340000E+01  0.2629962E+06  0.2403155E+06 -0.1789973E-02 -0.1235962E-02  0.6839067E-01  0.3374577E-02  0.4186386E-02 -0.2524853E-03 -0.1076219E+07  0.6305492E+05  0.5074514E-08 -0.6519258E-08
  0.2360000E+01  0.2643875E+06  0.2347308E+06  0.2715547E-02  0.2944946E-02  0.4732811E-01  0.3417969E-02  0.2030195E-02 -0.9918213E-04 -0.1080659E+07  0.6684276E+05 -0.4340910E-08  0.3725290E-08
  0.2380000E+01  0.2658654E+06  0.2292840E+06  0.1089913E-02  0.6866455E-03  0.3377450E-01  0.1648426E-02 -0.6898511E-02  0.1378059E-03 -0.1085205E+07  0.7051487E+05 -0.4010948E-08 -0.1862645E-08
  0.2400000E+01  0.2672531E+06  0.2241362E+06 -0.9695688E-03  0.2182007E-02  0.6561279E-02 -0.3055573E-02 -0.6243388E-02 -0.3645420E-03 -0.1089518E+07  0.7390402E+05 -0.7178945E-08  0.8381903E-08
  0.2420000E+01  0.2685515E+06  0.2190396E+06  0.5044228E-03  0.2441406E-02  0.3074457E-01  0.2264023E-02  0.1081987E-01  0.4317760E-03 -0.1093561E+07  0.7704232E+05  0.4137073E-08  0.5587935E-08
  0.2440000E+01  0.2697708E+06  0.2141454E+06 -0.3123674E-02  0.1068115E-03  0.3642098E-01 -0.8602142E-03 -0.2188761E-01  0.7480383E-03 -0.1097205E+07  0.8014159E+05 -0.4771120E-09 -0.1490116E-07
  0.2460000E+01  0.2711172E+06  0.2092216E+06  0.2543131E-02  0.8392334E-03  0.2384341E-01  0.5469322E-03 -0.1854625E-01  0.9039640E-03 -0.1101109E+07  0.8303498E+05  0.3123338E-08  0.1862645E-08
  0.2480000E+01  0.2724618E+06  0.2043873E+06  0.1315148E-02 -0.1510620E-02  0.7235619E-02  0.1072884E-02  0.2239596E-02  0.1537323E-02 -0.1105166E+07  0.8564252E+05 -0.6571833E-09 -0.3725290E-08
  0.2500000E+01  0.2737326E+06  0.1997558E+06 -0.2040100E-02 -0.6103516E-04  0.1166992E-01 -0.3221512E-02  0.1708984E-03  0.9357929E-03 -0.1108887E+07  0.8807512E+05 -0.1117587E-07 -0.9313226E-09
  0.2520000E+01  0.2749139E+06  0.1952559E+06 -0.2249460E-02 -0.1068115E-02  0.3160749E-01 -0.1859665E-02 -0.1356337E-02  0.2259016E-03 -0.1112220E+07  0.9061242E+05  0.4896835E-08  0.1862645E-08
  0.2540000E+01  0.2761112E+06  0.1909641E+06  0.5376621E-03 -0.8697510E-03  0.3565991E-01 -0.3261566E-02  0.1503051E-01 -0.5995035E-03 -0.1115655E+07  0.9318677E+05 -0.8341570E-08  0.2793968E-08
  0.2560000E+01  0.2772736E+06  0.1867878E+06  0.1305342E-02 -0.2441406E-03  0.6148815E-01 -0.2222061E-03  0.4875660E-02 -0.1485348E-03 -0.1119009E+07  0.9596698E+05  0.2728484E-08  0.3725290E-08
  0.2580000E+01  0.2783759E+06  0.1827337E+06  0.1772799E-02  0.1785278E-02  0.6846347E-01  0.4959106E-04  0.1137904E-01 -0.1460910E-02 -0.1122210E+07  0.9876713E+05  0.1534155E-08  0.2793968E-08
  0.2600000E+01  0.2793962E+06  0.1788035E+06  0.4646595E-02 -0.1403809E-02  0.5629320E-01 -0.1716614E-03 -0.1728938E-01 -0.6781816E-03 -0.1125338E+07  0.1015289E+06 -0.1611904E-08 -0.4656613E-08
  0.2620000E+01  0.2803684E+06  0.1750700E+06  0.4608213E-02 -0.1998901E-02  0.2091968E-01  0.0000000E+00  0.2194470E-01  0.9596348E-04 -0.1128718E+07  0.1035817E+06 -0.3732400E-08  0.1862645E-08
  0.2640000E+01  0.2811958E+06  0.1715086E+06 -0.1612577E-02  0.3402710E-02  0.1659971E-01 -0.1961231E-02  0.1202208E-02 -0.7328987E-03 -0.1132017E+07  0.1059458E+06 -0.5908959E-08  0.0000000E+00
  0.2660000E+01  0.2817318E+06  0.1680248E+06  0.3275477E-02 -0.8850098E-03  0.2973743E-01  0.2923489E-02 -0.3189431E-02  0.5793571E-03 -0.1135233E+07  0.1091704E+06 -0.8928092E-08  0.1862645E-08
  0.2680000E+01  0.2818162E+06  0.1649150E+06  0.2192027E-03 -0.1022339E-02  0.3985504E-01  0.2555847E-03  0.1734264E-01 -0.3147125E-04 -0.1138852E+07  0.1129089E+06  0.4083224E-08 -0.2793968E-08
  0.2700000E+01  0.2808315E+06  0.1624344E+06 -0.7035997E-03  0.7629395E-04  0.3946940E-01  0.3286362E-02  0.6171332E-02  0.8625984E-03 -0.1143247E+07  0.1170948E+06  0.1121036E-08 -0.1862645E-08
  0.2720000E+01  0.2761789E+06  0.1587437E+06  0.4493489E-02  0.4882812E-03  0.4160264E-01 -0.1773453E-01 -0.1521391E-01 -0.1027107E-02 -0.1150544E+07  0.1258740E+06  0.4451174E-08 -0.3725290E-08
  0.2740000E+01  0.2535963E+06  0.8043391E+05 -0.1102642E-02  0.1251221E-02  0.1603843E-01 -0.1662445E-01 -0.1168355E-01 -0.6685257E-03 -0.1187652E+07  0.1054171E+06 -0.3398987E-09  0.8381903E-08
  0.2760000E+01  0.3069882E+06  0.1145290E+06 -0.1870031E-02  0.9689331E-03  0.1711638E-01 -0.1159477E-01  0.1824420E-02 -0.6761551E-03 -0.1141345E+07  0.5095745E+05  0.5989484E-08 -0.4656613E-09
  0.2780000E+01  0.3011889E+06  0.1328557E+06  0.2244908E-02  0.6103516E-03  0.1932048E-01 -0.1467705E-02  0.5598548E-03  0.5176067E-03 -0.1144298E+07  0.8072019E+05 -0.6867666E-08  0.4190952E-08
  0.2800000E+01  0.2997346E+06  0.1342783E+06  0.4108974E-02  0.5187988E-03  0.2463205E-01 -0.1225471E-02 -0.1124791E-01 -0.6973743E-03 -0.1147596E+07  0.9051827E+05 -0.6153381E-08 -0.6519258E-08
  0.2820000E+01  0.2996319E+06  0.1334556E+06 -0.4290858E-02  0.1266479E-02  0.2536638E-01 -0.9102821E-03 -0.1524797E-01  0.7263422E-03 -0.1150564E+07  0.9429417E+05 -0.6605125E-09 -0.2328306E-08
  0.2840000E+01  0.3000256E+06  0.1311958E+06 -0.1975852E-02  0.1861572E-02  0.2974389E-01  0.2149105E-02  0.1465703E-01  0.5102158E-04 -0.1152937E+07  0.9832366E+05  0.7132488E-08  0.8381903E-08
  0.2860000E+01  0.3007424E+06  0.1281277E+06 -0.2400859E-03 -0.5187988E-03  0.5634015E-01  0.1704216E-02  0.1263385E-01 -0.1593828E-03 -0.1155523E+07  0.1018981E+06 -0.6838383E-08  0.1117587E-07
  0.2880000E+01  0.3015750E+06  0.1252057E+06 -0.1879533E-02  0.1495361E-02  0.4611545E-01  0.2966404E-02  0.1419915E-02 -0.3035069E-03 -0.1157921E+07  0.1042051E+06 -0.8084397E-10 -0.9313226E-08
  0.2900000E+01  0.3024504E+06  0.1224905E+06  0.2441406E-02  0.7934570E-03  0.3211712E-01  0.3075600E-02 -0.1894194E-03 -0.7035732E-03 -0.1160010E+07  0.1055204E+06 -0.1260497E-07 -0.4190952E-08
  0.2920000E+01  0.3034392E+06  0.1200277E+06 -0.2070649E-02 -0.5950928E-03 -0.5183808E-02  0.1563549E-02  0.3741539E-02  0.1373291E-03 -0.1162403E+07  0.1060145E+06  0.9010226E-08 -0.7450581E-08
  0.2940000E+01  0.3044365E+06  0.1176643E+06  0.5008412E-03  0.2441406E-03  0.9051472E-02  0.2813339E-02 -0.1806142E-02 -0.1924515E-02 -0.1164576E+07  0.1059660E+06 -0.3326152E-08  0.4656613E-09
  0.2960000E+01  0.3054123E+06  0.1153905E+06 -0.2826227E-02 -0.1678467E-03  0.1455771E-01  0.1406193E-02  0.1972301E-01 -0.1763165E-02 -0.1166450E+07  0.1058193E+06  0.1525985E-07 -0.1862645E-08
  0.2980000E+01  0.3064704E+06  0.1132390E+06  0.4923264E-02  0.1480103E-02  0.7823969E-02  0.1391172E-02  0.4014393E-02 -0.7054806E-03 -0.1168695E+07  0.1055596E+06 -0.4375341E-08  0.1862645E-08
  0.3000000E+01  0.3074650E+06  0.1111088E+06 -0.1918793E-02 -0.1205444E-02  0.1420085E-01  0.1417398E-02  0.4475912E-03  0.5542040E-03 -0.1170536E+07  0.1051882E+06 -0.1715186E-07 -0.3259629E-08
  0.3020000E+01  0.3084544E+06  0.1085757E+06  0.2643762E-02  0.7476807E-03 -0.2991127E-02  0.1498938E-02  0.1010516E-01  0.4416108E-03 -0.1172253E+07  0.1053577E+06  0.1079347E-07 -0.6053597E-08