VARIABLES="w (rad/s)"
"abs(F   1   1)" "angle(F   1   1)"
"abs(F   1   2)" "angle(F   1   2)"
"abs(F   1   3)" "angle(F   1   3)"
"abs(F   1   4)" "angle(F   1   4)"
"abs(F   1   5)" "angle(F   1   5)"
"abs(F   1   6)" "angle(F   1   6)"
Zone t="Diffraction force - beta =   0.000 deg",I=   500,F=POINT
  0.5257440E+00  0.1588851E+06 -0.1557250E+01  0.1186930E-01 -0.2654263E+01  0.6164123E+05 -0.2947189E+01  0.4165125E-01 -0.3055303E+01  0.3619311E+06  0.1584184E+01  0.2529858E-08  0.1972667E+01
  0.5320246E+00  0.1625969E+06 -0.1556352E+01  0.1012356E-01 -0.2684911E+00  0.6258395E+05 -0.2943967E+01  0.6971453E-01  0.2296457E+01  0.3696581E+06  0.1585074E+01  0.1695033E-08  0.1849096E+01
  0.5383052E+00  0.1663092E+06 -0.1555407E+01  0.1240383E-01 -0.3158424E+00  0.6353146E+05 -0.2940806E+01  0.2581343E-01 -0.1028223E+01  0.3773755E+06  0.1586010E+01  0.6427402E-08  0.1780625E+01
  0.5445858E+00  0.1700652E+06 -0.1554414E+01  0.1864803E-01 -0.9655169E+00  0.6447461E+05 -0.2937671E+01  0.6063940E-01 -0.5661741E-02  0.3851567E+06  0.1586994E+01  0.7691344E-08  0.1616220E+01
  0.5508664E+00  0.1738878E+06 -0.1553374E+01  0.1513553E-01  0.1650762E+00  0.6541389E+05 -0.2934565E+01  0.7374731E-01  0.2408339E+01  0.3930072E+06  0.1588025E+01  0.1164153E-09 -0.3141592E+01
  0.5571470E+00  0.1777514E+06 -0.1552284E+01  0.1263596E-01  0.9435981E+00  0.6635135E+05 -0.2931494E+01  0.5840591E-01  0.2277694E+01  0.4009658E+06  0.1589105E+01  0.2425940E-08  0.2098871E+01
  0.5634276E+00  0.1816368E+06 -0.1551141E+01  0.2537722E-01 -0.9579954E+00  0.6728483E+05 -0.2928461E+01  0.7991733E-01 -0.2980320E+01  0.4088967E+06  0.1590239E+01  0.4280539E-08  0.1961403E+01
  0.5697082E+00  0.1855527E+06 -0.1549944E+01  0.1079203E-01  0.5835626E-01  0.6821802E+05 -0.2925480E+01  0.2225646E-01 -0.1150240E+01  0.4168966E+06  0.1591425E+01  0.7461713E-08  0.1625429E+01
  0.5759888E+00  0.1895142E+06 -0.1548692E+01  0.3942735E-01  0.2314741E+01  0.6914983E+05 -0.2922545E+01  0.4472278E-01  0.1791279E+01  0.4250327E+06  0.1592663E+01  0.2102739E-08 -0.1653938E+01
  0.5822694E+00  0.1935087E+06 -0.1547383E+01  0.1021080E-01  0.7604976E+00  0.7008317E+05 -0.2919671E+01  0.3400443E-01  0.2099710E+01  0.4332286E+06  0.1593957E+01  0.4878691E-08 -0.1267911E+01
  0.5885500E+00  0.1974619E+06 -0.1546010E+01  0.8621939E-02  0.2340551E+01  0.7101820E+05 -0.2916867E+01  0.9294407E-03  0.1732457E+00  0.4412896E+06  0.1595314E+01  0.1818465E-08 -0.6947383E+00
  0.5948306E+00  0.2014873E+06 -0.1544579E+01  0.3172716E-01 -0.2455660E+01  0.7195709E+05 -0.2914129E+01  0.3308113E-01 -0.2466167E+01  0.4495413E+06  0.1596726E+01  0.2115590E-08 -0.1432790E+01
  0.6011113E+00  0.2055677E+06 -0.1543087E+01  0.3523420E-01 -0.1122062E+01  0.7290165E+05 -0.2911474E+01  0.2744788E-01 -0.2249661E+01  0.4579159E+06  0.1598197E+01  0.1001442E-07  0.1547545E+01
  0.6073918E+00  0.2096585E+06 -0.1541531E+01  0.3862703E-01 -0.1636492E+01  0.7382984E+05 -0.2908840E+01  0.7717803E-01 -0.6066200E+00  0.4662322E+06  0.1599733E+01  0.7458762E-08 -0.1617637E+01
  0.6136725E+00  0.2138000E+06 -0.1539909E+01  0.1234681E-01  0.5639212E+00  0.7461891E+05 -0.2905794E+01  0.2030241E-01 -0.3941841E+00  0.4746738E+06  0.1601330E+01  0.3509879E-08 -0.1670465E+01
  0.6199530E+00  0.2179468E+06 -0.1538219E+01  0.6462479E-02  0.2843224E+01  0.7541184E+05 -0.2902820E+01  0.4939424E-01  0.3012103E+01  0.4831848E+06  0.1602992E+01  0.5106375E-08  0.2388441E+01
  0.6262337E+00  0.2220947E+06 -0.1536457E+01  0.1177289E-01 -0.3020247E+00  0.7619051E+05 -0.2899864E+01  0.4250084E-01  0.1866431E+01  0.4916585E+06  0.1604723E+01  0.2685765E-08 -0.1048962E+01
  0.6325143E+00  0.2263504E+06 -0.1534633E+01  0.1759701E-01  0.1156127E+01  0.7696536E+05 -0.2896952E+01  0.3854995E-01  0.2232308E+01  0.5001970E+06  0.1606520E+01  0.3546371E-08 -0.1975688E+01
  0.6387949E+00  0.2306491E+06 -0.1532738E+01  0.8267159E-02 -0.1812865E+01  0.7772705E+05 -0.2894058E+01  0.4961935E-01  0.1467440E+01  0.5086213E+06  0.1608392E+01  0.6622385E-08  0.1394087E+01
  0.6450755E+00  0.2350083E+06 -0.1530773E+01  0.4289271E-01  0.1055142E+01  0.7848412E+05 -0.2891201E+01  0.1279847E+00 -0.1694027E+01  0.5171658E+06  0.1610332E+01  0.8614930E-08 -0.1577553E+01
  0.6513561E+00  0.2393879E+06 -0.1528733E+01  0.2064741E-01  0.2294493E+01  0.7923028E+05 -0.2888384E+01  0.4281402E-01  0.6328446E+00  0.5255642E+06  0.1612352E+01  0.4894984E-08 -0.1618379E+01
  0.6576367E+00  0.2437988E+06 -0.1526617E+01  0.3256179E-01 -0.1799792E+00  0.7997203E+05 -0.2885620E+01  0.5617997E-01 -0.2957354E+01  0.5339847E+06  0.1614447E+01  0.7917098E-08  0.1585501E+01
  0.6639173E+00  0.2482492E+06 -0.1524423E+01  0.8400265E-02  0.1926803E+01  0.8070653E+05 -0.2882898E+01  0.6086136E-01 -0.1373843E+01  0.5424744E+06  0.1616617E+01  0.5375313E-08 -0.1262744E+01
  0.6701979E+00  0.2527673E+06 -0.1522153E+01  0.2303903E-01 -0.9665135E+00  0.8143623E+05 -0.2880228E+01  0.3772589E-01  0.4410094E-01  0.5510753E+06  0.1618863E+01  0.9371976E-08  0.1682825E+01
  0.6764785E+00  0.2572039E+06 -0.1519790E+01  0.2132037E-01  0.4980616E+00  0.8216259E+05 -0.2877625E+01  0.7024989E-01  0.1055691E+01  0.5593780E+06  0.1621203E+01  0.7055383E-08  0.2227498E+01
  0.6827591E+00  0.2616791E+06 -0.1517344E+01  0.2571731E-01 -0.2875009E+01  0.8288563E+05 -0.2875088E+01  0.6647769E-01 -0.1762948E+01  0.5676976E+06  0.1623625E+01  0.3301457E-08 -0.1411445E+01
  0.6890397E+00  0.2662381E+06 -0.1514820E+01  0.1230835E-01 -0.2718082E+01  0.8360806E+05 -0.2872607E+01  0.9912498E-01 -0.1844751E+01  0.5762113E+06  0.1626123E+01  0.4851880E-08  0.2098871E+01
  0.6953203E+00  0.2708201E+06 -0.1512208E+01  0.3549881E-01 -0.2806759E+01  0.8433030E+05 -0.2870213E+01  0.1675986E-01 -0.2924109E+01  0.5846389E+06  0.1628710E+01  0.2917360E-08 -0.4993467E+00
  0.7016009E+00  0.2754122E+06 -0.1509507E+01  0.2805491E-01  0.1624055E+01  0.8502000E+05 -0.2867807E+01  0.8076935E-01 -0.1867184E+01  0.5929893E+06  0.1631388E+01  0.5155240E-08 -0.1457645E+01
  0.7078815E+00  0.2800487E+06 -0.1506719E+01  0.1669825E-01 -0.1512852E+01  0.8556060E+05 -0.2865013E+01  0.1003607E+00  0.2151799E+01  0.6013985E+06  0.1634152E+01  0.3004891E-08 -0.1947706E+01
  0.7141621E+00  0.2846912E+06 -0.1503836E+01  0.7903791E-03 -0.7956367E+00  0.8610648E+05 -0.2862296E+01  0.1198808E+00 -0.1272831E-02  0.6098482E+06  0.1637004E+01  0.7461714E-08 -0.1516163E+01
  0.7204427E+00  0.2893079E+06 -0.1500855E+01  0.3442670E-01 -0.2792367E+01  0.8663141E+05 -0.2859596E+01  0.2758627E-01 -0.1802695E+01  0.6181366E+06  0.1639957E+01  0.5125250E-08  0.1604874E+01
  0.7267233E+00  0.2939808E+06 -0.1497783E+01  0.2025986E-01 -0.1944729E+01  0.8714955E+05 -0.2856934E+01  0.3448904E-01 -0.1830786E+00  0.6265583E+06  0.1642996E+01  0.1399710E-07  0.1508378E+01
  0.7330039E+00  0.2986990E+06 -0.1494618E+01  0.2811359E-02 -0.7333762E-01  0.8765231E+05 -0.2854290E+01  0.2258882E+00  0.1699628E+00  0.6349851E+06  0.1646128E+01  0.5169679E-08 -0.1435269E+01
  0.7392845E+00  0.3034074E+06 -0.1491352E+01  0.1074572E-01 -0.2176375E+01  0.8814200E+05 -0.2851675E+01  0.2008668E-01  0.1808129E+01  0.6433649E+06  0.1649358E+01  0.1304488E-07 -0.1539557E+01
  0.7455651E+00  0.3081533E+06 -0.1487988E+01  0.5215786E-01  0.8910696E+00  0.8862142E+05 -0.2849080E+01  0.1341618E+00  0.1778196E+01  0.6518353E+06  0.1652679E+01  0.2374416E-08 -0.1768192E+01
  0.7518457E+00  0.3128897E+06 -0.1484523E+01  0.6989912E-02  0.7597331E+00  0.8908714E+05 -0.2846526E+01  0.8522502E-01 -0.8445554E+00  0.6601549E+06  0.1656106E+01  0.4794277E-08  0.1063698E+01
  0.7581264E+00  0.3176254E+06 -0.1480953E+01  0.4475228E-01 -0.1440436E+01  0.8954482E+05 -0.2844018E+01  0.1296968E-01 -0.1639086E+01  0.6684981E+06  0.1659629E+01  0.2146592E-08 -0.2186690E+00
  0.7644069E+00  0.3223711E+06 -0.1477279E+01  0.1923255E-01 -0.1113034E+00  0.8999202E+05 -0.2841545E+01  0.5904165E-01 -0.4744173E-01  0.6769131E+06  0.1663246E+01  0.6120668E-08  0.5616235E+00
  0.7706876E+00  0.3271629E+06 -0.1473505E+01  0.6710379E-01 -0.1405816E+01  0.9042898E+05 -0.2839108E+01  0.4449223E-01 -0.2395126E+01  0.6854216E+06  0.1666956E+01  0.5789249E-08  0.1835285E+01
  0.7769681E+00  0.3319023E+06 -0.1469617E+01  0.5116215E-01  0.9493074E+00  0.9085966E+05 -0.2836721E+01  0.4930742E-01  0.2955795E-01  0.6937829E+06  0.1670777E+01  0.8109060E-08 -0.2457883E+01
  0.7832488E+00  0.3365700E+06 -0.1465610E+01  0.3709060E-01 -0.2259201E+00  0.9128330E+05 -0.2834394E+01  0.3390050E-01 -0.1906069E+01  0.7019324E+06  0.1674712E+01  0.2809085E-08 -0.1674589E+01
  0.7895294E+00  0.3412738E+06 -0.1461500E+01  0.1106472E-01 -0.1917461E+01  0.9170010E+05 -0.2832111E+01  0.1569865E-01 -0.1991111E+00  0.7101184E+06  0.1678743E+01  0.1459527E-07  0.1422695E+01
  0.7958100E+00  0.3460681E+06 -0.1457306E+01  0.3175996E-01  0.1478179E+01  0.9211160E+05 -0.2829872E+01  0.1200731E+00 -0.3562571E+00  0.7183071E+06  0.1682865E+01  0.1097288E-07 -0.1351552E+01
  0.8020905E+00  0.3508696E+06 -0.1453011E+01  0.2821802E-01  0.1082298E+01  0.9251927E+05 -0.2827706E+01  0.1359174E+00 -0.1412061E+01  0.7262494E+06  0.1687098E+01  0.3284996E-08 -0.1446441E+01
  0.8083712E+00  0.3556692E+06 -0.1448612E+01  0.3194012E-01  0.9502761E+00  0.9292442E+05 -0.2825621E+01  0.9961705E-01  0.9264528E+00  0.7340109E+06  0.1691441E+01  0.3854472E-08 -0.1830426E+01
  0.8146517E+00  0.3604719E+06 -0.1444106E+01  0.4522295E-01 -0.4253674E+00  0.9315103E+05 -0.2823170E+01  0.1732236E-01 -0.2405733E+01  0.7416272E+06  0.1695895E+01  0.7919665E-08 -0.1541393E+01
  0.8209324E+00  0.3653113E+06 -0.1439496E+01  0.4374754E-01 -0.1471796E+01  0.9336294E+05 -0.2820725E+01  0.3138865E-01  0.3067878E+01  0.7492900E+06  0.1700450E+01  0.4365575E-08  0.1287002E+01
  0.8272130E+00  0.3700876E+06 -0.1434766E+01  0.4679850E-02 -0.4341157E+00  0.9356403E+05 -0.2818322E+01  0.7701959E-01  0.7157176E+00  0.7567174E+06  0.1705124E+01  0.3674467E-08  0.8638883E+00
  0.8334936E+00  0.3748278E+06 -0.1429921E+01  0.3724681E-01  0.1977389E+01  0.9374466E+05 -0.2815935E+01  0.1299783E+00  0.9728955E+00  0.7638980E+06  0.1709920E+01  0.1529179E-07  0.1344283E+01
  0.8397742E+00  0.3796181E+06 -0.1424973E+01  0.8651566E-03  0.1727971E+01  0.9391977E+05 -0.2813582E+01  0.3254464E-01 -0.2972706E+01  0.7711711E+06  0.1714816E+01  0.1713571E-07  0.1362075E+01
  0.8460548E+00  0.3844123E+06 -0.1419916E+01  0.3724943E-01 -0.7034056E+00  0.9407584E+05 -0.2811236E+01  0.2931304E-01  0.1720755E+01  0.7783379E+06  0.1719822E+01  0.1633179E-07  0.1634994E+01
  0.8523354E+00  0.3891658E+06 -0.1414742E+01  0.4383630E-01  0.1137197E+01  0.9421660E+05 -0.2808910E+01  0.9979881E-01 -0.2414176E+01  0.7852984E+06  0.1724948E+01  0.3167401E-07 -0.1546904E+01
  0.8586160E+00  0.3939399E+06 -0.1409458E+01  0.1723674E-01 -0.4300892E+00  0.9434616E+05 -0.2806595E+01  0.1885531E+00 -0.2813406E+01  0.7923236E+06  0.1730177E+01  0.1540250E-07  0.1638873E+01
  0.8648966E+00  0.3986523E+06 -0.1404054E+01  0.3963938E-01 -0.2666626E+01  0.9446120E+05 -0.2804309E+01  0.2129421E+00  0.8291396E+00  0.7990292E+06  0.1735534E+01  0.7943799E-08  0.1074374E+01
  0.8711772E+00  0.4033339E+06 -0.1398536E+01  0.2241411E-01 -0.1142091E+01  0.9456426E+05 -0.2802061E+01  0.7668117E-01  0.1722712E+01  0.8054997E+06  0.1741013E+01  0.1210943E-07 -0.1590025E+01
  0.8774578E+00  0.4079898E+06 -0.1392901E+01  0.6516728E-01 -0.1785218E+01  0.9465839E+05 -0.2799848E+01  0.6770071E-01 -0.1652590E+01  0.8119728E+06  0.1746597E+01  0.1159385E-07  0.1301462E+01
  0.8837384E+00  0.4126138E+06 -0.1387148E+01  0.7898248E-02 -0.2099288E+01  0.9473942E+05 -0.2797651E+01  0.2348872E+00  0.1145696E+01  0.8183826E+06  0.1752289E+01  0.1842096E-07  0.1739062E+01
  0.8900191E+00  0.4172499E+06 -0.1381288E+01  0.7958100E-01  0.1696911E+01  0.9480977E+05 -0.2795487E+01  0.1545813E+00 -0.6720817E+00  0.8247773E+06  0.1758082E+01  0.2290544E-07 -0.1791119E+01
  0.8962996E+00  0.4217848E+06 -0.1375299E+01  0.4826345E-01  0.7209974E+00  0.9487209E+05 -0.2793356E+01  0.2099804E-01 -0.5660325E+00  0.8308807E+06  0.1764004E+01  0.2634178E-07 -0.1712693E+01
  0.9025802E+00  0.4261860E+06 -0.1369175E+01  0.9894554E-01 -0.1676941E+01  0.9492720E+05 -0.2791272E+01  0.1186892E-01 -0.1688055E+01  0.8365813E+06  0.1770065E+01  0.3779914E-08 -0.1400584E+01
  0.9088608E+00  0.4305512E+06 -0.1362936E+01  0.2478768E-01  0.2243080E+01  0.9497465E+05 -0.2789230E+01  0.1273393E+00  0.1187888E+00  0.8421412E+06  0.1776236E+01  0.8394828E-08  0.1626295E+01
  0.9151415E+00  0.4349249E+06 -0.1356590E+01  0.3520294E-01 -0.2462519E+01  0.9501214E+05 -0.2787196E+01  0.1422357E+00 -0.1185310E+01  0.8477454E+06  0.1782504E+01  0.1143540E-07 -0.2189862E+01
  0.9214220E+00  0.4392949E+06 -0.1350136E+01  0.4952082E-01 -0.2824154E+01  0.9504425E+05 -0.2785206E+01  0.1852347E+00 -0.1908841E+01  0.8533470E+06  0.1788870E+01  0.1118557E-07  0.1612439E+01
  0.9277027E+00  0.4435433E+06 -0.1343559E+01  0.3345522E-01  0.2564074E+01  0.9507251E+05 -0.2783275E+01  0.1913416E+00  0.1939507E+01  0.8584856E+06  0.1795367E+01  0.8440112E-08 -0.1453285E+01
  0.9339832E+00  0.4477374E+06 -0.1336870E+01  0.3687588E-01  0.1954463E+01  0.9509694E+05 -0.2781401E+01  0.4174267E-01 -0.1278989E+01  0.8634413E+06  0.1801975E+01  0.1330398E-07 -0.2144237E+01
  0.9402639E+00  0.4518622E+06 -0.1330062E+01  0.5991918E-01 -0.8873928E+00  0.9493600E+05 -0.2779302E+01  0.1704947E+00  0.2019327E+00  0.8681826E+06  0.1808697E+01  0.1680418E-07  0.1501463E+01
  0.9465445E+00  0.4559745E+06 -0.1323151E+01  0.3119466E-01 -0.9731444E+00  0.9476796E+05 -0.2777209E+01  0.9574961E-01  0.1187198E+01  0.8729623E+06  0.1815507E+01  0.4665699E-08  0.1508378E+01
  0.9528251E+00  0.4599297E+06 -0.1316104E+01  0.2334056E-01  0.6542121E-01  0.9459617E+05 -0.2775148E+01  0.1171492E+00  0.2771076E+01  0.8774363E+06  0.1822438E+01  0.2383140E-07  0.2361376E+01
  0.9591056E+00  0.4637698E+06 -0.1308940E+01  0.5040892E-01 -0.2021989E+01  0.9440775E+05 -0.2773114E+01  0.3203659E-01 -0.1156586E+01  0.8815319E+06  0.1829489E+01  0.6559735E-08  0.1459649E+01
  0.9653863E+00  0.4675613E+06 -0.1301667E+01  0.2506293E-01  0.1725135E+01  0.9420623E+05 -0.2771078E+01  0.2825590E+00 -0.1663950E+01  0.8855642E+06  0.1836638E+01  0.1102340E-07  0.8638883E+00
  0.9716668E+00  0.4713158E+06 -0.1294293E+01  0.6468222E-01  0.1213296E+01  0.9399700E+05 -0.2769070E+01  0.4388707E-01  0.2213653E+00  0.8895639E+06  0.1843874E+01  0.1072763E-07 -0.2967078E+01
  0.9779475E+00  0.4749877E+06 -0.1286818E+01  0.3983132E-01 -0.1621733E+01  0.9376835E+05 -0.2767042E+01  0.1229537E+00 -0.1457247E+01  0.8932623E+06  0.1851206E+01  0.2931588E-07  0.1263174E+01
  0.9842281E+00  0.4785260E+06 -0.1279224E+01  0.5606628E-01  0.7535073E+00  0.9352880E+05 -0.2765032E+01  0.1951256E-01  0.2714674E+01  0.8967135E+06  0.1858644E+01  0.1266736E-07  0.1272297E+01
  0.9905087E+00  0.4820320E+06 -0.1271534E+01  0.3219719E-01  0.2303191E+01  0.9327741E+05 -0.2763012E+01  0.8857604E-01 -0.5587820E+00  0.9002058E+06  0.1866155E+01  0.1028420E-07 -0.1658638E+01
  0.9967892E+00  0.4853974E+06 -0.1263762E+01  0.8377086E-01 -0.1516780E+01  0.9301355E+05 -0.2761013E+01  0.1120777E+00 -0.2127621E+00  0.9030926E+06  0.1873775E+01  0.1956310E-07 -0.1881491E+01
  0.1003070E+01  0.4886948E+06 -0.1255934E+01  0.6199840E-01  0.1578718E+01  0.9273923E+05 -0.2759047E+01  0.1036565E+00 -0.9174030E+00  0.9055451E+06  0.1881475E+01  0.1998126E-07  0.1200433E+01
  0.1009351E+01  0.4918805E+06 -0.1248019E+01  0.4825331E-01  0.1861108E+01  0.9245682E+05 -0.2757102E+01  0.8314002E-01 -0.2646340E+01  0.9077408E+06  0.1889256E+01  0.9313953E-08  0.1558297E+01
  0.1015631E+01  0.4949779E+06 -0.1240024E+01  0.1877544E-01 -0.2489204E+01  0.9216616E+05 -0.2755188E+01  0.9495234E-01 -0.5336673E+00  0.9097632E+06  0.1897108E+01  0.3883923E-08 -0.1857588E+01
  0.1021912E+01  0.4979859E+06 -0.1231947E+01  0.1151141E+00 -0.1751704E+01  0.9186130E+05 -0.2753266E+01  0.7943718E-01  0.1316826E+01  0.9115654E+06  0.1905033E+01  0.5588185E-08  0.1561357E+01
  0.1028192E+01  0.5009341E+06 -0.1223801E+01  0.1975410E-01 -0.1465141E+00  0.9154926E+05 -0.2751372E+01  0.1273659E+00  0.1574390E+01  0.9132164E+06  0.1913021E+01  0.2088289E-07  0.1765305E+01
  0.1034473E+01  0.5036942E+06 -0.1215555E+01  0.3511250E-01  0.9675662E+00  0.9123044E+05 -0.2749496E+01  0.9833147E-01  0.2192354E+01  0.9143701E+06  0.1921124E+01  0.1944806E-07  0.1142961E+01
  0.1040753E+01  0.5062436E+06 -0.1207209E+01  0.7238062E-01 -0.1364545E+01  0.9090688E+05 -0.2747651E+01  0.1354337E+00 -0.8072883E+00  0.9149457E+06  0.1929338E+01  0.9084173E-08  0.2828960E+01
  0.1047034E+01  0.5086617E+06 -0.1198781E+01  0.3019298E-01 -0.1529012E+01  0.9057931E+05 -0.2745842E+01  0.4932522E-01  0.2564744E+01  0.9152030E+06  0.1937627E+01  0.8472766E-08  0.2919943E+01
  0.1053315E+01  0.5110156E+06 -0.1190292E+01  0.3581318E-01 -0.2298214E+01  0.9023945E+05 -0.2744017E+01  0.3709543E-02 -0.2489659E+01  0.9153202E+06  0.1945974E+01  0.2514571E-07  0.1570218E+01
  0.1059595E+01  0.5132905E+06 -0.1181734E+01  0.3679192E-01 -0.5406373E+00  0.8989252E+05 -0.2742205E+01  0.1226313E+00  0.2148739E+01  0.9153699E+06  0.1954374E+01  0.1518832E-07 -0.1376031E+01
  0.1065876E+01  0.5154551E+06 -0.1173109E+01  0.3349751E-01 -0.2364730E+01  0.8954295E+05 -0.2740428E+01  0.6994226E-01  0.1580941E+01  0.9151952E+06  0.1962832E+01  0.2145203E-07  0.1625091E+01
  0.1072156E+01  0.5174206E+06 -0.1164418E+01  0.6188376E-01 -0.1725785E+01  0.8919201E+05 -0.2738694E+01  0.8365103E-01  0.2190108E+01  0.9143815E+06  0.1971376E+01  0.1314492E-07 -0.2247958E+01
  0.1078437E+01  0.5192599E+06 -0.1155662E+01  0.2884518E-01  0.1465864E+01  0.8884042E+05 -0.2736997E+01  0.2293415E+00 -0.1579895E+01  0.9133061E+06  0.1979981E+01  0.1106864E-07 -0.1182478E+01
  0.1084718E+01  0.5209483E+06 -0.1146833E+01  0.1100601E+00  0.1316537E+01  0.8833418E+05 -0.2735334E+01  0.6683537E-01 -0.1364782E+01  0.9118828E+06  0.1988656E+01  0.8699271E-08 -0.1841743E+01
  0.1090998E+01  0.5225522E+06 -0.1137955E+01  0.1172027E+00  0.1912081E+01  0.8781430E+05 -0.2733652E+01  0.1633723E+00  0.1758104E+01  0.9103522E+06  0.1997368E+01  0.1060354E-07  0.1831752E+01
  0.1097279E+01  0.5239683E+06 -0.1129002E+01  0.5151665E-01  0.1297618E+01  0.8730097E+05 -0.2731979E+01  0.1981788E-01 -0.1241498E+01  0.9084866E+06  0.2006149E+01  0.3296096E-07 -0.1719686E+01
  0.1103559E+01  0.5251993E+06 -0.1119983E+01  0.4984816E-01 -0.1725169E+01  0.8677837E+05 -0.2730331E+01  0.7713874E-01  0.1070384E+01  0.9062366E+06  0.2014989E+01  0.1120554E-07 -0.1153627E+01
  0.1109840E+01  0.5262422E+06 -0.1110905E+01  0.5304199E-01  0.1487130E+01  0.8624470E+05 -0.2728702E+01  0.6141039E-01  0.1034468E+01  0.9035368E+06  0.2023892E+01  0.2212266E-07  0.1823433E+01
  0.1116121E+01  0.5271880E+06 -0.1101783E+01  0.7833379E-01 -0.1358103E+01  0.8570588E+05 -0.2727074E+01  0.6522074E-01  0.7398059E+00  0.9007881E+06  0.2032828E+01  0.1270915E-07  0.2919943E+01
  0.1122401E+01  0.5280219E+06 -0.1092626E+01  0.4596039E-01  0.1081757E+01  0.8516190E+05 -0.2725472E+01  0.1857271E+00 -0.1618445E+01  0.8978976E+06  0.2041784E+01  0.5963374E-08  0.2466852E+01
  0.1128682E+01  0.5286987E+06 -0.1083438E+01  0.1118193E-01 -0.3322152E+00  0.8460047E+05 -0.2723829E+01  0.1837801E-01 -0.5949110E+00  0.8946061E+06  0.2050757E+01  0.1549516E-07  0.1293013E+01
  0.1134963E+01  0.5291784E+06 -0.1074195E+01  0.2713033E-01 -0.9977691E+00  0.8403358E+05 -0.2722197E+01  0.1600028E+00 -0.1311535E+01  0.8909752E+06  0.2059776E+01  0.1370552E-07 -0.4199492E+00
  0.1141243E+01  0.5295485E+06 -0.1064918E+01  0.1323580E+00 -0.1563735E+01  0.8345983E+05 -0.2720559E+01  0.7577696E-01 -0.1982325E+01  0.8873000E+06  0.2068810E+01  0.1127788E-07 -0.1436198E+01
  0.1147524E+01  0.5297510E+06 -0.1055618E+01  0.6360748E-01  0.4179564E+00  0.8287608E+05 -0.2718924E+01  0.1745815E+00  0.2353815E+01  0.8832489E+06  0.2077877E+01  0.1336750E-07  0.9900399E+00
  0.1153804E+01  0.5297943E+06 -0.1046345E+01  0.8755694E-01 -0.2062992E+01  0.8228761E+05 -0.2717315E+01  0.1724956E+00 -0.1457348E+01  0.8787066E+06  0.2086938E+01  0.1098260E-07  0.1012197E+01
  0.1160085E+01  0.5296752E+06 -0.1037082E+01  0.8606401E-01 -0.1646819E+01  0.8169576E+05 -0.2715730E+01  0.1958969E+00  0.1831342E+01  0.8737322E+06  0.2096004E+01  0.3545931E-07 -0.1508378E+01
  0.1166366E+01  0.5293996E+06 -0.1027799E+01  0.6729083E-01 -0.1294739E+01  0.8110009E+05 -0.2714160E+01  0.9621417E-01 -0.2655638E+01  0.8686205E+06  0.2105064E+01  0.1090085E-07 -0.1222025E+01
  0.1172646E+01  0.5289801E+06 -0.1018514E+01  0.6777955E-01  0.1406249E+01  0.8050211E+05 -0.2712606E+01  0.3970155E-01 -0.1538218E+01  0.8632972E+06  0.2114120E+01  0.1120554E-07  0.1153627E+01
  0.1178927E+01  0.5284199E+06 -0.1009225E+01  0.8016808E-01  0.4486765E+00  0.7989166E+05 -0.2711034E+01  0.1188354E+00  0.2341826E+01  0.8577529E+06  0.2123157E+01  0.1170886E-07 -0.1873681E+01
  0.1185207E+01  0.5277448E+06 -0.9999533E+00  0.7128821E-01 -0.1079792E+01  0.7927916E+05 -0.2709483E+01  0.1428142E+00 -0.2347185E+01  0.8520501E+06  0.2132169E+01  0.2021742E-07  0.1826948E+01
  0.1191488E+01  0.5269294E+06 -0.9906774E+00  0.3775009E-01 -0.2012072E+01  0.7866254E+05 -0.2707947E+01  0.1047962E+00  0.1894147E+01  0.8462046E+06  0.2141174E+01  0.3772305E-07 -0.1412750E+01
  0.1197769E+01  0.5257990E+06 -0.9813816E+00  0.3466589E-01  0.9785972E+00  0.7804661E+05 -0.2706423E+01  0.1115708E+00 -0.1306495E+01  0.8395272E+06  0.2150251E+01  0.7341553E-08 -0.1092965E+01
  0.1204049E+01  0.5244907E+06 -0.9720777E+00  0.2651847E-01 -0.2947032E+01  0.7743152E+05 -0.2704913E+01  0.8062001E-01 -0.2354187E+01  0.8325873E+06  0.2159311E+01  0.1725462E-07 -0.5400150E-01
  0.1210330E+01  0.5230475E+06 -0.9627886E+00  0.6305727E-01 -0.1002065E+01  0.7681630E+05 -0.2703415E+01  0.1371389E-01 -0.1851809E+01  0.8254292E+06  0.2168346E+01  0.2888602E-07  0.1208252E+01
  0.1216610E+01  0.5215052E+06 -0.9535245E+00  0.2430219E-01  0.1928244E+01  0.7618853E+05 -0.2701892E+01  0.1404507E+00  0.1698608E+01  0.8182194E+06  0.2177345E+01  0.2384554E-07  0.2515668E+01
  0.1222891E+01  0.5198556E+06 -0.9442730E+00  0.5074207E-01  0.1743435E+01  0.7555758E+05 -0.2700382E+01  0.7989597E-01  0.1250035E+01  0.8109589E+06  0.2186315E+01  0.3806069E-07 -0.1777190E+01
  0.1229172E+01  0.5180923E+06 -0.9350474E+00  0.3597466E-01  0.7196679E+00  0.7492771E+05 -0.2698889E+01  0.5512870E-01  0.7744133E+00  0.8036001E+06  0.2195248E+01  0.6187559E-08 -0.8519663E+00
  0.1235452E+01  0.5161059E+06 -0.9258572E+00  0.3871732E-01 -0.1723116E+01  0.7430155E+05 -0.2697419E+01  0.4240682E-01  0.3777335E+00  0.7956634E+06  0.2204148E+01  0.1964627E-07 -0.1022247E+01
  0.1241733E+01  0.5139943E+06 -0.9166984E+00  0.4470501E-01 -0.4078273E+00  0.7367816E+05 -0.2695965E+01  0.2124249E+00 -0.1381195E+01  0.7875676E+06  0.2213006E+01  0.8086467E-08 -0.3026166E+01
  0.1248013E+01  0.5117110E+06 -0.9075572E+00  0.2581905E-01  0.2437774E+01  0.7301800E+05 -0.2694640E+01  0.5473361E-01  0.1314661E+01  0.7791687E+06  0.2221854E+01  0.7580416E-08 -0.2312744E+01
  0.1254294E+01  0.5093095E+06 -0.8984392E+00  0.2626173E+00  0.1509911E+01  0.7229040E+05 -0.2693480E+01  0.1712984E+00 -0.1513823E+01  0.7706445E+06  0.2230659E+01  0.3611972E-07  0.2123929E+01
  0.1260575E+01  0.5068144E+06 -0.8893622E+00  0.2799129E-01  0.1521313E+00  0.7156117E+05 -0.2692298E+01  0.6472050E-01 -0.1646106E+01  0.7621111E+06  0.2239415E+01  0.9220358E-08  0.2490516E+01
  0.1266855E+01  0.5041230E+06 -0.8802911E+00  0.7853682E-01  0.2308745E+01  0.7083962E+05 -0.2691097E+01  0.1083029E+00  0.1585220E+01  0.7533237E+06  0.2248150E+01  0.3170111E-07  0.1618554E+01
  0.1273136E+01  0.5012797E+06 -0.8712411E+00  0.2284506E-01 -0.2741612E+01  0.7011768E+05 -0.2689913E+01  0.6326516E-01 -0.1779704E+01  0.7443577E+06  0.2256840E+01  0.2049042E-07 -0.1582160E+01
  0.1279416E+01  0.4982447E+06 -0.8622289E+00  0.2098605E-01 -0.8641416E+00  0.6939622E+05 -0.2688754E+01  0.6185878E-01 -0.1396067E+01  0.7349918E+06  0.2265494E+01  0.8385136E-08 -0.1598567E+01
  0.1285697E+01  0.4951348E+06 -0.8532837E+00  0.3370617E-01 -0.1857180E+01  0.6866853E+05 -0.2687610E+01  0.5993348E-01  0.1379967E+01  0.7256568E+06  0.2274078E+01  0.2328306E-07 -0.2498091E+01
  0.1291978E+01  0.4919477E+06 -0.8444241E+00  0.1512723E+00  0.1670038E+01  0.6794403E+05 -0.2686487E+01  0.2818428E-01 -0.3024792E+01  0.7163036E+06  0.2282592E+01  0.3071799E-07 -0.2326712E+01
  0.1298258E+01  0.4886647E+06 -0.8356476E+00  0.1118065E+00 -0.1664795E+01  0.6721523E+05 -0.2685364E+01  0.2716261E-01  0.1290182E+01  0.7068424E+06  0.2291007E+01  0.2715249E-07  0.1030816E+00
  0.1304539E+01  0.4852656E+06 -0.8269438E+00  0.4931305E-01 -0.1181527E+01  0.6647678E+05 -0.2684218E+01  0.8640707E-01 -0.1496139E+01  0.6971984E+06  0.2299315E+01  0.1050580E-07 -0.1347320E+01
  0.1310819E+01  0.4817100E+06 -0.8182827E+00  0.9086439E-01  0.1777603E+01  0.6574034E+05 -0.2683072E+01  0.9848430E-01  0.1029327E+01  0.6873572E+06  0.2307589E+01  0.1770470E-07  0.1603679E+01
  0.1317100E+01  0.4780862E+06 -0.8096784E+00  0.6276573E-01  0.2162979E+01  0.6500178E+05 -0.2681938E+01  0.3964176E-01  0.2409396E+01  0.6776122E+06  0.2315808E+01  0.2809085E-07 -0.9770467E+00
  0.1323381E+01  0.4743570E+06 -0.8011456E+00  0.4594599E-01 -0.1274608E+01  0.6425870E+05 -0.2680816E+01  0.9121508E-01 -0.1901090E+01  0.6677464E+06  0.2323967E+01  0.2219872E-07 -0.2285680E+01
  0.1329661E+01  0.4704807E+06 -0.7926787E+00  0.5539748E-01 -0.1023905E+01  0.6351939E+05 -0.2679708E+01  0.1113549E+00 -0.1817104E+01  0.6575672E+06  0.2332069E+01  0.1825606E-07 -0.2482787E+01
  0.1335942E+01  0.4665103E+06 -0.7842945E+00  0.9021447E-01 -0.1537406E+01  0.6278337E+05 -0.2678619E+01  0.8291312E-01  0.1904805E+01  0.6472998E+06  0.2340075E+01  0.7407711E-08 -0.2614650E+01
  0.1342222E+01  0.4624213E+06 -0.7759678E+00  0.6590802E-01  0.9240308E+00  0.6205079E+05 -0.2677541E+01  0.4107207E-01 -0.2239786E+01  0.6369296E+06  0.2347998E+01  0.1496107E-07 -0.1204740E+01
  0.1348503E+01  0.4582467E+06 -0.7676864E+00  0.1088309E+00 -0.1825076E+01  0.6132134E+05 -0.2676475E+01  0.3812321E-01 -0.1842182E+01  0.6266218E+06  0.2355848E+01  0.1796421E-07  0.7395588E+00
  0.1354784E+01  0.4539689E+06 -0.7594556E+00  0.2248319E-01  0.2479359E+01  0.6059399E+05 -0.2675406E+01  0.8123536E-01 -0.2095551E+01  0.6162938E+06  0.2363627E+01  0.9880911E-08  0.2540519E+01
  0.1361064E+01  0.4496174E+06 -0.7512969E+00  0.1208532E-01 -0.9715002E+00  0.5985963E+05 -0.2674338E+01  0.1087886E+00  0.1549791E+01  0.6059726E+06  0.2371289E+01  0.2168702E-07 -0.2880990E+01
  0.1367345E+01  0.4452017E+06 -0.7432101E+00  0.1684507E+00  0.1614596E+01  0.5912911E+05 -0.2673276E+01  0.1529768E+00  0.1580671E+01  0.5956958E+06  0.2378862E+01  0.1117829E-07  0.1549966E+01
  0.1373626E+01  0.4407347E+06 -0.7351928E+00  0.4945495E-01  0.1852863E+01  0.5840043E+05 -0.2672231E+01  0.1339811E+00  0.1535940E+01  0.5855299E+06  0.2386354E+01  0.1712374E-07  0.1365401E+01
  0.1379906E+01  0.4360583E+06 -0.7272204E+00  0.1002667E-01  0.2416088E+01  0.5767888E+05 -0.2671180E+01  0.5958792E-01 -0.1355804E+01  0.5748581E+06  0.2393857E+01  0.2792633E-07 -0.2317865E+01
  0.1386187E+01  0.4312740E+06 -0.7193007E+00  0.2536003E-01 -0.3671113E-01  0.5696370E+05 -0.2670124E+01  0.1659491E+00 -0.1588164E+01  0.5640874E+06  0.2401300E+01  0.5134166E-08 -0.5754247E+00
  0.1392467E+01  0.4264017E+06 -0.7114498E+00  0.3195717E-01  0.1487021E+01  0.5625482E+05 -0.2669059E+01  0.1002169E-01 -0.5312802E+00  0.5532667E+06  0.2408618E+01  0.1322070E-07 -0.2129384E+00
  0.1398748E+01  0.4214786E+06 -0.7036679E+00  0.2542437E-01  0.2358051E+01  0.5554750E+05 -0.2667991E+01  0.4812736E-01  0.1465181E+01  0.5425274E+06  0.2415838E+01  0.2484649E-07 -0.2544493E+01
  0.1405028E+01  0.4165244E+06 -0.6959620E+00  0.1092139E-01 -0.1823569E+01  0.5483270E+05 -0.2666935E+01  0.6754368E-02  0.5240498E+00  0.5319429E+06  0.2422952E+01  0.1768440E-07  0.2982937E+01
  0.1411309E+01  0.4115470E+06 -0.6883641E+00  0.2676009E-01 -0.1600024E+01  0.5411880E+05 -0.2665922E+01  0.1569299E+00 -0.1567490E+01  0.5214896E+06  0.2429952E+01  0.1427880E-07 -0.1990676E+01
  0.1417590E+01  0.4065365E+06 -0.6808604E+00  0.3327646E-01  0.1752257E+01  0.5340978E+05 -0.2664920E+01  0.6749597E-01 -0.1751992E+01  0.5111322E+06  0.2436843E+01  0.1010134E-07  0.4791103E+00
  0.1423870E+01  0.4014413E+06 -0.6734594E+00  0.5449385E-01 -0.1481249E+01  0.5270893E+05 -0.2663919E+01  0.6562771E-01 -0.1671934E+01  0.5006312E+06  0.2443584E+01  0.1500448E-07 -0.8402880E+00
  0.1430151E+01  0.3962798E+06 -0.6661518E+00  0.1763941E-01  0.1046956E+01  0.5201592E+05 -0.2662921E+01  0.4776184E-01 -0.1613619E+01  0.4900729E+06  0.2450194E+01  0.2200103E-07 -0.2840760E+01
  0.1436431E+01  0.3910820E+06 -0.6589347E+00  0.6987105E-01  0.1565296E+01  0.5132972E+05 -0.2661918E+01  0.1761173E-01  0.1708665E+01  0.4795893E+06  0.2456703E+01  0.1634143E-07 -0.5385870E+00
  0.1442712E+01  0.3858010E+06 -0.6517830E+00  0.1423819E-01  0.2492546E+01  0.5061951E+05 -0.2661215E+01  0.1066144E+00  0.1575680E+01  0.4689890E+06  0.2463158E+01  0.3205652E-08 -0.1058407E+01
  0.1448993E+01  0.3805078E+06 -0.6447201E+00  0.2807759E-01 -0.1560742E+01  0.4988887E+05 -0.2660650E+01  0.8589929E-01  0.1662920E+01  0.4585436E+06  0.2469485E+01  0.1904529E-07  0.1949600E+01
  0.1455273E+01  0.3751962E+06 -0.6377369E+00  0.7606571E-01  0.1283696E+01  0.4916259E+05 -0.2660064E+01  0.5621490E-01 -0.1683443E+01  0.4482662E+06  0.2475732E+01  0.9970101E-08  0.9985818E+00
  0.1461554E+01  0.3698099E+06 -0.6308037E+00  0.7778846E-01  0.9797080E+00  0.4844675E+05 -0.2659434E+01  0.6854161E-01 -0.1261744E+01  0.4379978E+06  0.2481907E+01  0.1230972E-07 -0.2158471E+01
  0.1467834E+01  0.3643674E+06 -0.6239284E+00  0.1069018E+00  0.1387849E+01  0.4773654E+05 -0.2658795E+01  0.1786888E+00  0.1628404E+01  0.4277693E+06  0.2487992E+01  0.1215727E-07 -0.1661592E+01