VARIABLES="w (rad/s)"
"abs(F   1   1)" "angle(F   1   1)"
"abs(F   1   2)" "angle(F   1   2)"
"abs(F   1   3)" "angle(F   1   3)"
"abs(F   1   4)" "angle(F   1   4)"
"abs(F   1   5)" "angle(F   1   5)"
"abs(F   1   6)" "angle(F   1   6)"
Zone t="Diffraction force - beta =   0.000 deg",I=   500,F=POINT
  0.5257440E+00  0.3517591E+06 -0.1564678E+01  0.3857182E-01 -0.1165686E+00  0.5323124E+06 -0.2237207E-01  0.6590397E-01 -0.3456250E-01  0.7919401E+06  0.1576914E+01  0.9754081E-08 -0.2616525E+01
  0.5320246E+00  0.3594456E+06 -0.1564262E+01  0.4634456E-02 -0.2451939E+01  0.5273662E+06 -0.2330249E-01  0.2277946E+01  0.2522080E-01  0.8077986E+06  0.1577330E+01  0.9891880E-08 -0.2677945E+01
  0.5383052E+00  0.3671505E+06 -0.1563825E+01  0.1229334E+00 -0.3100455E-01  0.5223954E+06 -0.2425744E-01  0.1259584E+01 -0.3118734E+01  0.8236488E+06  0.1577766E+01  0.9380108E-08  0.2563917E+01
  0.5445858E+00  0.3749165E+06 -0.1563365E+01  0.1838735E+00 -0.8641215E-01  0.5174099E+06 -0.2523767E-01  0.8091126E+00  0.5563306E-03  0.8395608E+06  0.1578227E+01  0.2208611E-07  0.2972111E+01
  0.5508664E+00  0.3827652E+06 -0.1562882E+01  0.1308364E+00  0.3440441E-02  0.5124102E+06 -0.2624361E-01  0.3274121E+00  0.1223029E+00  0.8555378E+06  0.1578711E+01  0.7036148E-08  0.1855914E+01
  0.5571470E+00  0.3906699E+06 -0.1562374E+01  0.4317215E-01  0.2947126E+01  0.5073952E+06 -0.2727600E-01  0.9098711E+00  0.3090010E+01  0.8716144E+06  0.1579218E+01  0.1251357E-07 -0.8677199E+00
  0.5634276E+00  0.3986111E+06 -0.1561841E+01  0.3782244E-01 -0.2493033E+01  0.5023676E+06 -0.2833403E-01  0.8468884E+00 -0.2007286E-01  0.8876545E+06  0.1579752E+01  0.8436698E-08  0.2258467E+01
  0.5697082E+00  0.4065963E+06 -0.1561281E+01  0.3704047E-01 -0.2996386E+01  0.4973238E+06 -0.2941827E-01  0.4700013E+00 -0.3466378E-01  0.9037491E+06  0.1580312E+01  0.8339956E-08  0.2799977E+01
  0.5759888E+00  0.4146396E+06 -0.1560694E+01  0.1272762E+00  0.2937356E+01  0.4922662E+06 -0.3052942E-01  0.8348039E+00  0.6008031E-01  0.9199657E+06  0.1580899E+01  0.2508697E-07  0.7443703E+00
  0.5822694E+00  0.4227278E+06 -0.1560079E+01  0.2407562E-01  0.2887573E+01  0.4871930E+06 -0.3166753E-01  0.1488911E+00  0.1780294E+00  0.9362216E+06  0.1581513E+01  0.6053874E-08 -0.2322194E+01
  0.5885500E+00  0.4307855E+06 -0.1559436E+01  0.4721950E-01  0.3018731E+01  0.4821040E+06 -0.3283205E-01  0.5153977E+00 -0.8097289E-02  0.9523228E+06  0.1582157E+01  0.2842060E-08  0.6107262E+00
  0.5948306E+00  0.4389248E+06 -0.1558762E+01  0.3125821E-01 -0.2509710E+01  0.4769981E+06 -0.3402524E-01  0.3646825E+00 -0.4074380E-01  0.9685908E+06  0.1582829E+01  0.2191114E-08 -0.1867342E+01
  0.6011113E+00  0.4471285E+06 -0.1558058E+01  0.3504802E-01 -0.2091279E+01  0.4718738E+06 -0.3524629E-01  0.8634558E+00 -0.1777874E-01  0.9849541E+06  0.1583534E+01  0.2653146E-07  0.8288491E+00
  0.6073918E+00  0.4553507E+06 -0.1557323E+01  0.5644528E-01 -0.8140148E+00  0.4667548E+06 -0.3649269E-01  0.3803232E+00 -0.3032429E+01  0.1001229E+07  0.1584269E+01  0.1579520E-07 -0.1232730E+01
  0.6136725E+00  0.4636301E+06 -0.1556554E+01  0.5651704E-01  0.3019050E+01  0.4617673E+06 -0.3776055E-01  0.6385408E+00 -0.3127924E+01  0.1017599E+07  0.1585038E+01  0.1250856E-07 -0.2244084E+01
  0.6199530E+00  0.4719216E+06 -0.1555753E+01  0.6520039E-01 -0.3132933E+01  0.4567667E+06 -0.3905758E-01  0.1562025E+00  0.3117853E+01  0.1034001E+07  0.1585840E+01  0.3978611E-08  0.2782822E+01
  0.6262337E+00  0.4802190E+06 -0.1554917E+01  0.3090749E-01 -0.3015118E+01  0.4517716E+06 -0.4038223E-01  0.1923366E+01  0.3118302E+01  0.1050329E+07  0.1586675E+01  0.1150113E-07  0.1697662E+01
  0.6325143E+00  0.4886288E+06 -0.1554047E+01  0.1856285E-01  0.1371688E+01  0.4467718E+06 -0.4173724E-01  0.2172875E+01  0.3127817E+01  0.1066681E+07  0.1587546E+01  0.7000424E-08 -0.1504228E+01
  0.6387949E+00  0.4970848E+06 -0.1553141E+01  0.6097507E-01 -0.1704918E+00  0.4417777E+06 -0.4312160E-01  0.2898820E+00  0.1558329E+00  0.1082875E+07  0.1588451E+01  0.7428722E-08  0.1008874E+01
  0.6450755E+00  0.5056037E+06 -0.1552197E+01  0.1703805E+00  0.2921984E+01  0.4367813E+06 -0.4453829E-01  0.8626187E+00 -0.1447939E+00  0.1099145E+07  0.1589395E+01  0.2849590E-07 -0.7232497E+00
  0.6513561E+00  0.5141443E+06 -0.1551216E+01  0.2723344E-01  0.6939491E+00  0.4317900E+06 -0.4598321E-01  0.1003989E+01  0.2861444E-01  0.1115218E+07  0.1590376E+01  0.1411077E-07  0.2227498E+01
  0.6576367E+00  0.5227167E+06 -0.1550196E+01  0.1238233E+00 -0.1848559E-01  0.4267972E+06 -0.4745914E-01  0.7261151E+00 -0.9572166E-02  0.1131261E+07  0.1591395E+01  0.2778427E-07  0.2541247E+00
  0.6639173E+00  0.5313282E+06 -0.1549136E+01  0.2589025E-01  0.3056054E+00  0.4218070E+06 -0.4896670E-01  0.5593991E-01 -0.1313611E+01  0.1147322E+07  0.1592455E+01  0.6977152E-08  0.4487231E+00
  0.6701979E+00  0.5400060E+06 -0.1548035E+01  0.4131601E-01 -0.2688205E+01  0.4168173E+06 -0.5050652E-01  0.1684562E+00  0.1875120E-01  0.1163434E+07  0.1593557E+01  0.2018153E-07 -0.6008016E+00
  0.6764785E+00  0.5485995E+06 -0.1546891E+01  0.1170172E-01  0.8717173E+00  0.4118276E+06 -0.5207753E-01  0.1070477E+01  0.5518459E-01  0.1179190E+07  0.1594700E+01  0.2395696E-07  0.3054012E+01
  0.6827591E+00  0.5572284E+06 -0.1545704E+01  0.1678702E+00 -0.3099678E+01  0.4068377E+06 -0.5368073E-01  0.4423189E+00 -0.1532670E+00  0.1194900E+07  0.1595886E+01  0.1880468E-07  0.2502339E+00
  0.6890397E+00  0.5659364E+06 -0.1544473E+01  0.4162136E-01 -0.1183241E+00  0.4018471E+06 -0.5532077E-01  0.1294049E+01 -0.6942520E-01  0.1210739E+07  0.1597117E+01  0.2399963E-08  0.2253113E+01
  0.6953203E+00  0.5746618E+06 -0.1543198E+01  0.1918326E-01 -0.2561092E+01  0.3968541E+06 -0.5699296E-01  0.5151758E-01  0.7203563E-01  0.1226424E+07  0.1598392E+01  0.1250584E-07 -0.2719587E+01
  0.7016009E+00  0.5833910E+06 -0.1541876E+01  0.1077598E+00  0.2865078E+01  0.3918933E+06 -0.5869135E-01  0.1055478E+01 -0.7331081E-01  0.1241961E+07  0.1599713E+01  0.2007110E-07 -0.3013640E+01
  0.7078815E+00  0.5921572E+06 -0.1540508E+01  0.9057499E-01 -0.2164808E+00  0.3870858E+06 -0.6039486E-01  0.1514770E+00  0.6434606E+00  0.1257484E+07  0.1601081E+01  0.2914065E-07 -0.3084854E+00
  0.7141621E+00  0.6009209E+06 -0.1539092E+01  0.1124682E+00 -0.3092256E+01  0.3822733E+06 -0.6213637E-01  0.1031604E+00 -0.7987422E-02  0.1272971E+07  0.1602497E+01  0.1553360E-07 -0.1424130E+01
  0.7204427E+00  0.6096491E+06 -0.1537627E+01  0.3179742E-01 -0.2762601E+01  0.3774836E+06 -0.6390657E-01  0.3032269E+00 -0.3100494E+01  0.1288218E+07  0.1603962E+01  0.1554319E-07  0.1950607E+01
  0.7267233E+00  0.6184226E+06 -0.1536111E+01  0.6632395E-01 -0.2829773E+01  0.3727032E+06 -0.6571399E-01  0.1437778E+00  0.5041079E-02  0.1303517E+07  0.1605477E+01  0.1257300E-07  0.2411875E+01
  0.7330039E+00  0.6272299E+06 -0.1534546E+01  0.2205051E-01 -0.4326303E-01  0.3679412E+06 -0.6755599E-01  0.6571748E-01  0.2549405E+01  0.1318737E+07  0.1607043E+01  0.1483005E-07 -0.3863373E+00
  0.7392845E+00  0.6360144E+06 -0.1532928E+01  0.6096249E-01 -0.2265760E+00  0.3631951E+06 -0.6943294E-01  0.3109275E+00  0.6455401E-01  0.1333824E+07  0.1608660E+01  0.1152232E-07 -0.7031475E+00
  0.7455651E+00  0.6448228E+06 -0.1531258E+01  0.4913593E-01  0.2204732E+01  0.3584644E+06 -0.7135013E-01  0.1696696E+00  0.7753190E+00  0.1348912E+07  0.1610330E+01  0.2237598E-07  0.2931953E+01
  0.7518457E+00  0.6536065E+06 -0.1529536E+01  0.3593489E-01  0.2082945E+00  0.3537521E+06 -0.7330016E-01  0.1793084E+00 -0.2755698E+01  0.1363758E+07  0.1612054E+01  0.1797477E-07  0.9324766E+00
  0.7581264E+00  0.6623738E+06 -0.1527759E+01  0.3999044E-01 -0.1685804E+01  0.3490524E+06 -0.7528832E-01  0.4046551E+00 -0.4024545E-01  0.1378532E+07  0.1613831E+01  0.1059060E-07 -0.9888912E+00
  0.7644069E+00  0.6711332E+06 -0.1525927E+01  0.8572484E-01 -0.5146393E-01  0.3443698E+06 -0.7731536E-01  0.3431234E+00 -0.3520549E-01  0.1393280E+07  0.1615664E+01  0.2665504E-08 -0.2589936E+01
  0.7706876E+00  0.6799209E+06 -0.1524039E+01  0.8275919E-01 -0.2274588E+01  0.3397040E+06 -0.7938226E-01  0.2117377E+00 -0.3005693E+01  0.1408022E+07  0.1617551E+01  0.1243030E-07  0.7920205E+00
  0.7769681E+00  0.6886364E+06 -0.1522095E+01  0.4879475E-01  0.9908814E+00  0.3350516E+06 -0.8149081E-01  0.2075662E+00  0.3129132E+01  0.1422514E+07  0.1619496E+01  0.7753646E-08 -0.7216552E+00
  0.7832488E+00  0.6972598E+06 -0.1520094E+01  0.9758791E-02 -0.1380454E+01  0.3304132E+06 -0.8363871E-01  0.5259534E+00 -0.5695169E-01  0.1436690E+07  0.1621498E+01  0.6810298E-08 -0.3141593E+01
  0.7895294E+00  0.7058978E+06 -0.1518036E+01  0.6857454E-01 -0.2981140E+01  0.3257903E+06 -0.8583118E-01  0.1251512E+01 -0.7906779E-02  0.1450794E+07  0.1623555E+01  0.2730336E-07  0.1021236E+01
  0.7958100E+00  0.7146028E+06 -0.1515925E+01  0.5148812E-01  0.2441902E+01  0.3211821E+06 -0.8807122E-01  0.7389552E-01 -0.2486734E+01  0.1464790E+07  0.1625665E+01  0.1994893E-07 -0.2839107E+00
  0.8020905E+00  0.7232916E+06 -0.1513760E+01  0.2828195E-01  0.1317835E+01  0.3165865E+06 -0.9035426E-01  0.1545420E+00 -0.2128480E+01  0.1478428E+07  0.1627829E+01  0.2082639E-07 -0.6764868E+00
  0.8083712E+00  0.7319532E+06 -0.1511538E+01  0.1167920E+00  0.2261832E+00  0.3120022E+06 -0.9268121E-01  0.6499953E+00  0.1287532E+00  0.1491769E+07  0.1630049E+01  0.1643736E-07 -0.2177461E+01
  0.8146517E+00  0.7405917E+06 -0.1509258E+01  0.3180906E-01 -0.2529674E+01  0.3076087E+06 -0.9494710E-01  0.1536781E+00 -0.7583138E-01  0.1504847E+07  0.1632326E+01  0.7172542E-08  0.6240237E+00
  0.8209324E+00  0.7492389E+06 -0.1506918E+01  0.5554979E-01 -0.2295970E+01  0.3032415E+06 -0.9725655E-01  0.7926810E+00  0.4956793E-02  0.1517851E+07  0.1634664E+01  0.1400387E-07  0.2270856E+01
  0.8272130E+00  0.7577948E+06 -0.1504519E+01  0.7599750E-01  0.6439452E-01  0.2988965E+06 -0.9960522E-01  0.1080033E+00  0.4936639E+00  0.1530497E+07  0.1637060E+01  0.1463144E-07  0.1406955E+01
  0.8334936E+00  0.7662836E+06 -0.1502061E+01  0.4684991E-01  0.2236120E+01  0.2945842E+06 -0.1019877E+00  0.8295525E+00  0.3011336E+01  0.1542770E+07  0.1639515E+01  0.2206562E-07  0.1328377E+01
  0.8397742E+00  0.7747916E+06 -0.1499542E+01  0.2483841E-01  0.3006027E+01  0.2902906E+06 -0.1044205E+00  0.1301861E+01 -0.5526350E-02  0.1555008E+07  0.1642033E+01  0.1238730E-07  0.1357733E+01
  0.8460548E+00  0.7832708E+06 -0.1496961E+01  0.2644643E-01 -0.1145088E+01  0.2860298E+06 -0.1068929E+00  0.6700076E+00  0.3081740E+01  0.1567007E+07  0.1644611E+01  0.1208086E-07  0.1012197E+01
  0.8523354E+00  0.7916754E+06 -0.1494321E+01  0.3707545E-01  0.1254837E+01  0.2817981E+06 -0.1094071E+00  0.8430447E+00 -0.3073304E+01  0.1578668E+07  0.1647250E+01  0.2051893E-07 -0.1624722E+01
  0.8586160E+00  0.8000651E+06 -0.1491617E+01  0.4371955E-01 -0.1552365E+00  0.2775930E+06 -0.1119726E+00  0.2536343E+00 -0.2911870E+01  0.1590259E+07  0.1649952E+01  0.2288412E-07  0.1494415E+01
  0.8648966E+00  0.8083571E+06 -0.1488854E+01  0.2067433E-01 -0.1082391E+01  0.2734170E+06 -0.1145799E+00  0.2160017E+00  0.8767364E+00  0.1601391E+07  0.1652714E+01  0.2520821E-07  0.6790685E+00
  0.8711772E+00  0.8165804E+06 -0.1486030E+01  0.1804064E-01 -0.2018084E+01  0.2692678E+06 -0.1172307E+00  0.5681512E+00  0.1373886E+00  0.1612148E+07  0.1655535E+01  0.2706550E-07 -0.1191887E+01
  0.8774578E+00  0.8247385E+06 -0.1483144E+01  0.1097637E+00 -0.2549947E+01  0.2651438E+06 -0.1199317E+00  0.4122304E+00 -0.3032217E+01  0.1622766E+07  0.1658421E+01  0.9733219E-08  0.1037556E+01
  0.8837384E+00  0.8328249E+06 -0.1480196E+01  0.1889755E-01 -0.2750591E+01  0.2610496E+06 -0.1226834E+00  0.3265366E+00  0.7140320E+00  0.1633174E+07  0.1661367E+01  0.2326392E-07  0.5949422E+00
  0.8900191E+00  0.8408812E+06 -0.1477186E+01  0.1385779E+00  0.5991340E+00  0.2569827E+06 -0.1254853E+00  0.6127028E+00 -0.1728848E+00  0.1643421E+07  0.1664376E+01  0.2111743E-07 -0.2148096E+01
  0.8962996E+00  0.8487925E+06 -0.1474116E+01  0.8228271E-01  0.3888658E+00  0.2529417E+06 -0.1283429E+00  0.4985738E+00 -0.3140093E+01  0.1653227E+07  0.1667446E+01  0.2845110E-07 -0.1939145E+01
  0.9025802E+00  0.8565265E+06 -0.1470987E+01  0.1094385E+00 -0.1243314E+01  0.2489254E+06 -0.1312548E+00  0.7195629E+00 -0.3120714E+01  0.1662477E+07  0.1670575E+01  0.1959593E-07  0.1633215E+01
  0.9088608E+00  0.8641781E+06 -0.1467798E+01  0.6366424E-01  0.2758389E+01  0.2449347E+06 -0.1342232E+00  0.8571993E+00  0.1568309E-01  0.1671434E+07  0.1673761E+01  0.2196520E-07  0.2129395E+01
  0.9151415E+00  0.8717913E+06 -0.1464548E+01  0.7400118E-01 -0.2896877E+01  0.2409739E+06 -0.1372568E+00  0.1603635E+01 -0.8079042E-01  0.1680278E+07  0.1677012E+01  0.1181773E-07 -0.1901892E+01
  0.9214220E+00  0.8793521E+06 -0.1461235E+01  0.4531581E-01 -0.3682193E+00  0.2370373E+06 -0.1403540E+00  0.1797472E+01 -0.3050246E+01  0.1688963E+07  0.1680326E+01  0.1603660E-07 -0.2021457E+01
  0.9277027E+00  0.8867422E+06 -0.1457869E+01  0.2494513E-01  0.2249998E+01  0.2331242E+06 -0.1435141E+00  0.8049405E+00  0.2930310E+01  0.1697026E+07  0.1683688E+01  0.1796581E-07  0.1938668E+01
  0.9339832E+00  0.8940265E+06 -0.1454447E+01  0.7584066E-01  0.4691025E+00  0.2292344E+06 -0.1467400E+00  0.1478887E+01 -0.3122658E+01  0.1704744E+07  0.1687109E+01  0.1004415E-07  0.2372586E+01
  0.9402639E+00  0.9011891E+06 -0.1450966E+01  0.8428284E-01 -0.6711431E+00  0.2255398E+06 -0.1497431E+00  0.8199669E+00  0.3107159E+01  0.1712084E+07  0.1690585E+01  0.2145203E-07  0.1516502E+01
  0.9465445E+00  0.9082858E+06 -0.1447428E+01  0.8154273E-01 -0.2781703E+01  0.2218740E+06 -0.1528101E+00  0.9108577E+00  0.9108989E-01  0.1719297E+07  0.1694123E+01  0.2581751E-07  0.2867628E+01
  0.9528251E+00  0.9151696E+06 -0.1443836E+01  0.1482996E-01  0.1789562E+00  0.2182334E+06 -0.1559405E+00  0.5124118E-01  0.1387679E+01  0.1726038E+07  0.1697714E+01  0.3962266E-07  0.2175505E+01
  0.9591056E+00  0.9218819E+06 -0.1440194E+01  0.4335472E-01 -0.1795287E+01  0.2146300E+06 -0.1591076E+00  0.1259266E+01 -0.3104651E+01  0.1732232E+07  0.1701352E+01  0.1601591E-07  0.2447552E+01
  0.9653863E+00  0.9284883E+06 -0.1436497E+01  0.1424764E+00  0.3008291E+01  0.2110618E+06 -0.1623311E+00  0.3720309E+00 -0.8629109E+00  0.1738192E+07  0.1705049E+01  0.2261403E-07  0.1418343E+01
  0.9716668E+00  0.9349995E+06 -0.1432747E+01  0.6264821E-01  0.1909098E+01  0.2075235E+06 -0.1656132E+00  0.6014469E+00  0.3106384E+01  0.1743949E+07  0.1708802E+01  0.2099596E-07  0.3008125E+01
  0.9779475E+00  0.9413672E+06 -0.1428952E+01  0.6516546E-01 -0.7262389E+00  0.2040276E+06 -0.1689443E+00  0.4268495E+00 -0.2886115E+00  0.1749235E+07  0.1712595E+01  0.3167824E-07  0.1224930E+01
  0.9842281E+00  0.9475408E+06 -0.1425109E+01  0.1236195E+00  0.2756483E+00  0.2005653E+06 -0.1723310E+00  0.1396092E+01  0.3134494E+01  0.1754099E+07  0.1716438E+01  0.2622628E-07  0.1282741E+01
  0.9905087E+00  0.9536199E+06 -0.1421217E+01  0.2849650E-01  0.1263391E+01  0.1971395E+06 -0.1757827E+00  0.8643749E+00 -0.5564441E-01  0.1758830E+07  0.1720335E+01  0.1829020E-07 -0.1826581E+01
  0.9967892E+00  0.9594969E+06 -0.1417298E+01  0.9097727E-01 -0.1248875E+01  0.1937490E+06 -0.1792860E+00  0.2263677E+01 -0.3136611E+01  0.1762783E+07  0.1724253E+01  0.3352992E-07 -0.1582515E+01
  0.1003070E+01  0.9652448E+06 -0.1413355E+01  0.1333258E+00  0.5019510E+00  0.1903920E+06 -0.1828420E+00  0.7097222E+00 -0.1287298E+00  0.1766129E+07  0.1728189E+01  0.2931159E-07  0.1321483E+01
  0.1009351E+01  0.9708169E+06 -0.1409381E+01  0.9059426E-01  0.3937818E+00  0.1870673E+06 -0.1864630E+00  0.6287789E+00 -0.5007231E-01  0.1769046E+07  0.1732157E+01  0.2462755E-07  0.1094465E+01
  0.1015631E+01  0.9762359E+06 -0.1405374E+01  0.2750431E-01 -0.4710346E+00  0.1837747E+06 -0.1901458E+00  0.1209442E+01 -0.3111668E+01  0.1771612E+07  0.1736159E+01  0.1396502E-07  0.1313182E+01
  0.1021912E+01  0.9814998E+06 -0.1401335E+01  0.1227024E+00 -0.1211878E+01  0.1805218E+06 -0.1938894E+00  0.8125435E+00  0.8816913E-01  0.1773785E+07  0.1740192E+01  0.1826152E-07  0.1465716E+01
  0.1028192E+01  0.9866372E+06 -0.1397265E+01  0.4524011E-01 -0.2179201E+00  0.1773008E+06 -0.1977009E+00  0.1908241E+00  0.2417241E+01  0.1775631E+07  0.1744257E+01  0.2705289E-07  0.1513411E+01
  0.1034473E+01  0.9915180E+06 -0.1393172E+01  0.5100696E-01  0.2690595E+01  0.1741121E+06 -0.2015875E+00  0.8115812E-01  0.1158461E+01  0.1776800E+07  0.1748347E+01  0.4475894E-08 -0.9832441E+00
  0.1040753E+01  0.9961196E+06 -0.1389061E+01  0.7166219E-01 -0.1923100E+01  0.1709541E+06 -0.2055511E+00  0.7457667E+00 -0.3007336E+01  0.1777216E+07  0.1752448E+01  0.9801770E-08 -0.1887853E+01
  0.1047034E+01  0.1000521E+07 -0.1384929E+01  0.3718945E-01 -0.2274679E+01  0.1678257E+06 -0.2095948E+00  0.9393759E-01  0.2894624E+01  0.1777137E+07  0.1756567E+01  0.1794496E-07 -0.1935642E+01
  0.1053315E+01  0.1004788E+07 -0.1380774E+01  0.2744307E-01 -0.1245172E+01  0.1647367E+06 -0.2137149E+00  0.5714733E-01 -0.1562059E-01  0.1776744E+07  0.1760713E+01  0.3457320E-07  0.1489473E+01
  0.1059595E+01  0.1008906E+07 -0.1376595E+01  0.3440066E-01 -0.2704666E+01  0.1616816E+06 -0.2179178E+00  0.1567500E+00  0.2601490E+01  0.1776106E+07  0.1764889E+01  0.1701957E-07 -0.1397213E+01
  0.1065876E+01  0.1012843E+07 -0.1372399E+01  0.2847992E-01 -0.1666040E+01  0.1586561E+06 -0.2222109E+00  0.1016273E+00  0.8379756E+00  0.1775070E+07  0.1769082E+01  0.1129409E-07  0.1425984E+01
  0.1072156E+01  0.1016511E+07 -0.1368207E+01  0.6012659E-01 -0.1555584E+01  0.1556590E+06 -0.2265984E+00  0.6027850E+00  0.8843508E-01  0.1773226E+07  0.1773259E+01  0.9470200E-08  0.1753125E+01
  0.1078437E+01  0.1019982E+07 -0.1364004E+01  0.8838122E-01  0.3700867E+00  0.1526897E+06 -0.2310896E+00  0.2821044E+00 -0.8789046E+00  0.1770946E+07  0.1777448E+01  0.2166702E-07 -0.1721812E+01
  0.1084718E+01  0.1023228E+07 -0.1359793E+01  0.1765454E+00  0.2532553E+01  0.1498726E+06 -0.2350734E+00  0.6475072E+00 -0.1139141E+00  0.1768147E+07  0.1781640E+01  0.2425465E-07 -0.1628424E+01
  0.1090998E+01  0.1026319E+07 -0.1355574E+01  0.1193554E+00  0.1327655E+01  0.1470963E+06 -0.2391077E+00  0.2435219E+00  0.8801897E+00  0.1765070E+07  0.1785847E+01  0.2009109E-07  0.1801721E+01
  0.1097279E+01  0.1029148E+07 -0.1351355E+01  0.5899620E-01  0.1031691E+01  0.1443435E+06 -0.2432624E+00  0.8353729E-01 -0.2926035E+01  0.1761488E+07  0.1790056E+01  0.3173423E-07 -0.1636876E+01
  0.1103559E+01  0.1031721E+07 -0.1347144E+01  0.5557479E-01 -0.1825114E+01  0.1416261E+06 -0.2474662E+00  0.2860603E+00  0.2819386E+01  0.1757356E+07  0.1794255E+01  0.1322070E-07 -0.2129384E+00
  0.1109840E+01  0.1034033E+07 -0.1342944E+01  0.1017648E+00  0.5659186E+00  0.1389460E+06 -0.2517136E+00  0.7628334E+00  0.7814036E-01  0.1752608E+07  0.1798434E+01  0.1738305E-07  0.1838517E+01
  0.1116121E+01  0.1036176E+07 -0.1338746E+01  0.7818645E-01 -0.1203357E+01  0.1362993E+06 -0.2560398E+00  0.1637431E+00  0.2899929E+00  0.1747647E+07  0.1802629E+01  0.1864617E-07 -0.2367232E+01
  0.1122401E+01  0.1038135E+07 -0.1334558E+01  0.1447386E+00  0.2762290E+00  0.1336853E+06 -0.2604322E+00  0.5335538E+00 -0.2789159E+01  0.1742382E+07  0.1806820E+01  0.1919971E-07 -0.1969319E+01
  0.1128682E+01  0.1039867E+07 -0.1330393E+01  0.5703371E-01 -0.4014177E-01  0.1311169E+06 -0.2648669E+00  0.2488495E+00 -0.1091777E+00  0.1736565E+07  0.1810970E+01  0.5552368E-07  0.1426675E+01
  0.1134963E+01  0.1041331E+07 -0.1326251E+01  0.3086129E-01 -0.7374824E+00  0.1285818E+06 -0.2693737E+00  0.5757263E+00 -0.2878832E+01  0.1730252E+07  0.1815099E+01  0.2131013E-07 -0.3571722E+00
  0.1141243E+01  0.1042613E+07 -0.1322123E+01  0.1337129E+00 -0.1817823E+01  0.1260826E+06 -0.2739539E+00  0.2914890E+00 -0.1618052E+00  0.1723737E+07  0.1819232E+01  0.3103403E-07 -0.1431551E+01
  0.1147524E+01  0.1043660E+07 -0.1318029E+01  0.9215958E-01  0.2984624E+00  0.1236212E+06 -0.2785861E+00  0.2033889E+00  0.6729892E+00  0.1716698E+07  0.1823329E+01  0.1154861E-07 -0.1825556E+01
  0.1153804E+01  0.1044486E+07 -0.1313994E+01  0.1008468E+00 -0.2249604E+01  0.1211919E+06 -0.2832871E+00  0.3860800E+00 -0.4716412E+00  0.1709032E+07  0.1827351E+01  0.2783958E-07 -0.1325818E+01
  0.1160085E+01  0.1045087E+07 -0.1310011E+01  0.8520068E-01 -0.1174056E+01  0.1187942E+06 -0.2880643E+00  0.8104679E+00  0.2892327E+01  0.1700798E+07  0.1831308E+01  0.3355206E-07 -0.1532621E+01
  0.1166366E+01  0.1045464E+07 -0.1306067E+01  0.5847970E-01 -0.1710848E+01  0.1164288E+06 -0.2929217E+00  0.5661128E+00 -0.7781266E-01  0.1692289E+07  0.1835236E+01  0.1445801E-07 -0.1831398E+01
  0.1172646E+01  0.1045634E+07 -0.1302169E+01  0.8759473E-01  0.9462665E+00  0.1140950E+06 -0.2978671E+00  0.6485105E+00 -0.6723765E-01  0.1683430E+07  0.1839124E+01  0.3539045E-07  0.1574086E+01
  0.1178927E+01  0.1045599E+07 -0.1298316E+01  0.8464202E-01  0.4326942E+00  0.1118017E+06 -0.3028605E+00  0.9621376E+00  0.3047081E+01  0.1674222E+07  0.1842962E+01  0.3261708E-07 -0.1535097E+01
  0.1185207E+01  0.1045387E+07 -0.1294513E+01  0.1091331E+00 -0.5487970E+00  0.1095393E+06 -0.3079416E+00  0.2185633E+00 -0.2644508E+01  0.1664728E+07  0.1846755E+01  0.2443280E-07  0.1704608E+01
  0.1191488E+01  0.1044972E+07 -0.1290758E+01  0.1717878E+00 -0.2969313E+01  0.1073094E+06 -0.3131027E+00  0.1772828E+00  0.5750520E+00  0.1654962E+07  0.1850513E+01  0.4847031E-07 -0.1370103E+01
  0.1197769E+01  0.1044185E+07 -0.1287095E+01  0.2335863E-01  0.1083995E+01  0.1051092E+06 -0.3183750E+00  0.2445380E+00 -0.4233657E+00  0.1644247E+07  0.1854152E+01  0.8479160E-08 -0.1722401E+01
  0.1204049E+01  0.1043161E+07 -0.1283496E+01  0.2430506E-01 -0.2898764E+01  0.1029381E+06 -0.3237630E+00  0.5410135E-01 -0.1653387E+01  0.1633153E+07  0.1857722E+01  0.1416254E-07  0.8086501E+00
  0.1210330E+01  0.1041945E+07 -0.1279959E+01  0.5843223E-01 -0.1585518E+01  0.1007971E+06 -0.3292639E+00  0.4678632E+00 -0.3117863E+01  0.1621731E+07  0.1861224E+01  0.3839941E-07  0.1172274E+01
  0.1216610E+01  0.1040573E+07 -0.1276481E+01  0.4365849E-01  0.4740028E+00  0.9869696E+05 -0.3348129E+00  0.1782243E+00  0.2310274E+01  0.1610145E+07  0.1864680E+01  0.2963542E-07  0.2461944E+01
  0.1222891E+01  0.1039035E+07 -0.1273060E+01  0.6277655E-01  0.2355894E+01  0.9662901E+05 -0.3404519E+00  0.2531223E+00  0.3149094E+00  0.1598393E+07  0.1868096E+01  0.2583712E-07 -0.1802661E+01
  0.1229172E+01  0.1037331E+07 -0.1269705E+01  0.2935975E-01  0.2384863E+01  0.9458996E+05 -0.3462116E+00  0.5280598E-01  0.1915176E+01  0.1586439E+07  0.1871457E+01  0.1777002E-08  0.2589936E+01
  0.1235452E+01  0.1035359E+07 -0.1266459E+01  0.5059968E-01 -0.1753347E+01  0.9257760E+05 -0.3521121E+00  0.3087186E+00  0.4761543E-01  0.1573828E+07  0.1874666E+01  0.3095860E-07 -0.1296629E+01
  0.1241733E+01  0.1033211E+07 -0.1263288E+01  0.8373465E-01 -0.2802771E+00  0.9059308E+05 -0.3581545E+00  0.2641722E+00 -0.2209007E+01  0.1560965E+07  0.1877798E+01  0.8504694E-08  0.2806856E+01
  0.1248013E+01  0.1030844E+07 -0.1260207E+01  0.1934141E-01  0.1188385E+01  0.8865762E+05 -0.3639562E+00  0.3492428E+00  0.1791286E+00  0.1547709E+07  0.1880834E+01  0.7970840E-08 -0.3024484E+01
  0.1254294E+01  0.1028309E+07 -0.1257200E+01  0.2702298E+00  0.1338719E+01  0.8678975E+05 -0.3692143E+00  0.5182816E+00 -0.2813723E+01  0.1534241E+07  0.1883794E+01  0.4514409E-07  0.2050590E+01
  0.1260575E+01  0.1025634E+07 -0.1254270E+01  0.3261776E-01  0.3602891E-01  0.8495367E+05 -0.3745572E+00  0.5843489E+00 -0.1267100E+00  0.1520673E+07  0.1886699E+01  0.2765128E-07  0.1909855E+01
  0.1266855E+01  0.1022719E+07 -0.1251439E+01  0.6951272E-01  0.2047353E+01  0.8314289E+05 -0.3800648E+00  0.3946509E+00  0.2867928E+01  0.1506773E+07  0.1889505E+01  0.1396644E-07  0.1204221E+01
  0.1273136E+01  0.1019609E+07 -0.1248700E+01  0.3079587E-01 -0.3973448E+00  0.8136086E+05 -0.3856494E+00  0.6108142E+00 -0.3041979E+01  0.1492621E+07  0.1892214E+01  0.1677835E-07 -0.1529154E+01
  0.1279416E+01  0.1016271E+07 -0.1246080E+01  0.3383772E-01 -0.4307700E+00  0.7960658E+05 -0.3913139E+00  0.3099190E+00 -0.2923619E+01  0.1478013E+07  0.1894772E+01  0.1873238E-07 -0.1006927E+01
  0.1285697E+01  0.1012821E+07 -0.1243550E+01  0.3327250E-01 -0.1834796E+01  0.7788477E+05 -0.3970008E+00  0.1173485E+00  0.2619762E+01  0.1463362E+07  0.1897264E+01  0.2876566E-07 -0.2634494E+01
  0.1291978E+01  0.1009263E+07 -0.1241123E+01  0.1537916E+00  0.1645203E+01  0.7618891E+05 -0.4027937E+00  0.1620956E+00  0.1111899E+00  0.1448627E+07  0.1899679E+01  0.3649894E-07 -0.2186225E+01
  0.1298258E+01  0.1005580E+07 -0.1238804E+01  0.1197614E+00 -0.1425516E+01  0.7452496E+05 -0.4086305E+00  0.5459776E-01  0.7301354E+00  0.1433735E+07  0.1901977E+01  0.2715249E-07  0.1030816E+00
  0.1304539E+01  0.1001752E+07 -0.1236598E+01  0.4806450E-01 -0.1077898E+01  0.7289713E+05 -0.4144659E+00  0.2709424E+00 -0.2820976E+01  0.1418624E+07  0.1904133E+01  0.3754280E-08 -0.1446442E+01
  0.1310819E+01  0.9977396E+06 -0.1234511E+01  0.1302632E+00  0.2427052E+01  0.7129673E+05 -0.4204015E+00  0.1176727E+00  0.8315811E+00  0.1403263E+07  0.1906171E+01  0.2260527E-07  0.1720705E+01
  0.1317100E+01  0.9936273E+06 -0.1232515E+01  0.8384537E-01  0.2492377E+01  0.6972533E+05 -0.4263873E+00  0.5057585E+00  0.3096118E+01  0.1387932E+07  0.1908161E+01  0.5690232E-07 -0.1307954E+01
  0.1323381E+01  0.9893851E+06 -0.1230635E+01  0.5566900E-01 -0.7697228E+00  0.6818466E+05 -0.4323900E+00  0.1589536E+00 -0.2529473E+01  0.1372438E+07  0.1910038E+01  0.3941255E-07 -0.2026518E+01
  0.1329661E+01  0.9849768E+06 -0.1228887E+01  0.5564279E-01 -0.1013069E+01  0.6666879E+05 -0.4385029E+00  0.2375366E+00 -0.4238598E+00  0.1356604E+07  0.1911741E+01  0.2420095E-07 -0.2617674E+01
  0.1335942E+01  0.9804551E+06 -0.1227259E+01  0.8765703E-01 -0.1501743E+01  0.6517803E+05 -0.4447166E+00  0.1220400E+00  0.2487942E+01  0.1340656E+07  0.1913314E+01  0.1577803E-07  0.2054243E+01
  0.1342222E+01  0.9757946E+06 -0.1225753E+01  0.1050125E+00  0.4670997E+00  0.6371242E+05 -0.4510404E+00  0.4151564E+00 -0.6534053E-01  0.1324576E+07  0.1914756E+01  0.2887194E-07 -0.1578861E+01
  0.1348503E+01  0.9710243E+06 -0.1224351E+01  0.1142772E+00 -0.1801995E+01  0.6227189E+05 -0.4574718E+00  0.1623632E+00 -0.2915049E+01  0.1308515E+07  0.1916121E+01  0.1606532E-07  0.3317127E-06
  0.1354784E+01  0.9661315E+06 -0.1223066E+01  0.7154167E-01  0.2966661E+01  0.6085796E+05 -0.4640053E+00  0.9450019E-01 -0.2309108E+01  0.1292405E+07  0.1917380E+01  0.1273777E-07  0.1254826E+01
  0.1361064E+01  0.9611479E+06 -0.1221896E+01  0.1493758E-01 -0.5277620E+00  0.5947528E+05 -0.4705176E+00  0.1248322E+00  0.2036166E+01  0.1276279E+07  0.1918522E+01  0.4960770E-07 -0.2135366E+01
  0.1367345E+01  0.9560846E+06 -0.1220838E+01  0.1749901E+00  0.1903305E+01  0.5811718E+05 -0.4771444E+00  0.2529037E+00  0.2438627E+01  0.1260171E+07  0.1919571E+01  0.2610301E-07  0.1526183E+01
  0.1373626E+01  0.9509535E+06 -0.1219885E+01  0.4973284E-01  0.1797357E+01  0.5678403E+05 -0.4838522E+00  0.1690666E+00  0.2269276E+01  0.1244137E+07  0.1920554E+01  0.2975955E-07  0.1325818E+01
  0.1379906E+01  0.9456118E+06 -0.1219109E+01  0.1621616E-01  0.2729149E+01  0.5547369E+05 -0.4907323E+00  0.8877543E-01 -0.7859602E+00  0.1227609E+07  0.1921281E+01  0.6931355E-08 -0.3006821E+01
  0.1386187E+01  0.9401523E+06 -0.1218466E+01  0.7156540E-02 -0.3481345E+00  0.5418651E+05 -0.4977773E+00  0.4384732E+00 -0.2760981E+01  0.1210972E+07  0.1921860E+01  0.3290932E-07 -0.1294926E+01
  0.1392467E+01  0.9345994E+06 -0.1217957E+01  0.2760180E-01  0.1975199E+01  0.5292253E+05 -0.5049939E+00  0.3905350E+00 -0.3735128E-01  0.1194289E+07  0.1922278E+01  0.2234234E-07 -0.7301040E+00
  0.1398748E+01  0.9289856E+06 -0.1217563E+01  0.2232211E-01  0.6420145E+00  0.5168395E+05 -0.5123067E+00  0.6560859E-01  0.8617791E+00  0.1177673E+07  0.1922594E+01  0.4210958E-07 -0.2006004E+01
  0.1405028E+01  0.9233324E+06 -0.1217280E+01  0.1978383E-01 -0.2381830E+01  0.5047489E+05 -0.5195535E+00  0.3230431E+00  0.3119415E+01  0.1161194E+07  0.1922835E+01  0.2673501E-07  0.2151552E+01
  0.1411309E+01  0.9176537E+06 -0.1217115E+01  0.1750253E-01 -0.2012414E+01  0.4928875E+05 -0.5268466E+00  0.2109948E+00 -0.8564869E+00  0.1144832E+07  0.1922991E+01  0.6752082E-08  0.2380579E+01
  0.1417590E+01  0.9119393E+06 -0.1217070E+01  0.4373727E-01  0.1860403E+01  0.4812493E+05 -0.5342680E+00  0.1917742E+00 -0.2778481E+01  0.1128557E+07  0.1923049E+01  0.1552520E-07 -0.5005432E+00
  0.1423870E+01  0.9061488E+06 -0.1217178E+01  0.5661966E-01 -0.1293621E+01  0.4698189E+05 -0.5418866E+00  0.2603211E+00 -0.2883709E+01  0.1112173E+07  0.1922887E+01  0.2080547E-07 -0.1016942E+01
  0.1430151E+01  0.9002970E+06 -0.1217427E+01  0.2838312E-01  0.5707802E+00  0.4585950E+05 -0.5497032E+00  0.8622032E-01 -0.5085380E+00  0.1095754E+07  0.1922544E+01  0.1566738E-07 -0.2839817E+01
  0.1436431E+01  0.8944106E+06 -0.1217800E+01  0.7825412E-01  0.1932295E+01  0.4475873E+05 -0.5577067E+00  0.3153750E-01  0.4144292E+00  0.1079408E+07  0.1922088E+01  0.4207995E-07 -0.1480762E+01
  0.1442712E+01  0.8884466E+06 -0.1218319E+01  0.3951081E-01  0.1754578E+00  0.4368118E+05 -0.5651192E+00  0.2471877E+00  0.4705801E+00  0.1062962E+07  0.1921444E+01  0.1903035E-07 -0.1364403E+01
  0.1448993E+01  0.8824713E+06 -0.1218950E+01  0.2807583E-01 -0.1895211E+01  0.4263190E+05 -0.5720577E+00  0.3851193E+00  0.2236428E+00  0.1046670E+07  0.1920709E+01  0.5835558E-07  0.1715938E+01
  0.1455273E+01  0.8764782E+06 -0.1219694E+01  0.8677748E-01  0.1290434E+01  0.4160504E+05 -0.5790905E+00  0.2367151E+00 -0.2153968E+00  0.1030530E+07  0.1919912E+01  0.8547326E-08  0.1373735E+01
  0.1461554E+01  0.8704157E+06 -0.1220579E+01  0.6187451E-01  0.1786546E+01  0.4059829E+05 -0.5863613E+00  0.1648391E+00 -0.2654947E+01  0.1014409E+07  0.1918971E+01  0.1575779E-07 -0.2051790E+01
  0.1467834E+01  0.8643022E+06 -0.1221597E+01  0.1033827E+00  0.1339589E+01  0.3961232E+05 -0.5937524E+00  0.2002352E+00  0.2032326E+01  0.9983372E+06  0.1917895E+01  0.6619600E-07 -0.1524120E+01