VARIABLES="w (rad/s)"
"abs(F   1   1)" "angle(F   1   1)"
"abs(F   1   2)" "angle(F   1   2)"
"abs(F   1   3)" "angle(F   1   3)"
"abs(F   1   4)" "angle(F   1   4)"
"abs(F   1   5)" "angle(F   1   5)"
"abs(F   1   6)" "angle(F   1   6)"
Zone t="FKforce - beta =   0.000",I=   500,F=POINT
  0.5257440E+00  0.1928820E+06 -0.1570796E+01  0.4880938E-01  0.2196332E-01  0.5926593E+06 -0.2574631E-09  0.1073689E+00  0.1222225E-01  0.4300266E+06  0.1570796E+01  0.1037338E-07 -0.2372066E+01
  0.5320246E+00  0.1968579E+06 -0.1570796E+01  0.1333878E-01 -0.3121858E+01  0.5885889E+06  0.6221845E-09  0.2323492E+01  0.2278813E-02  0.4381610E+06  0.1570796E+01  0.1033936E-07 -0.2516108E+01
  0.5383052E+00  0.2008521E+06 -0.1570796E+01  0.1110840E+00  0.3777472E-03  0.5844969E+06  0.5899923E-08  0.1272601E+01 -0.3136341E+01  0.4462970E+06  0.1570795E+01  0.6622384E-08 -0.2964884E+01
  0.5445858E+00  0.2048638E+06 -0.1570796E+01  0.1725777E+00 -0.3094597E-02  0.5803838E+06  0.6940787E-08  0.7484745E+00  0.1060099E-02  0.4544315E+06  0.1570797E+01  0.2178305E-07 -0.2958871E+01
  0.5508664E+00  0.2088918E+06 -0.1570796E+01  0.1159237E+00 -0.1757323E-01  0.5762508E+06  0.5295885E-09  0.3798774E+00 -0.2478599E-01  0.4625621E+06  0.1570797E+01  0.7004295E-08  0.1839964E+01
  0.5571470E+00  0.2129351E+06 -0.1570796E+01  0.4980997E-01 -0.3103674E+01  0.5720988E+06 -0.1066864E-09  0.8707311E+00  0.3138719E+01  0.4706849E+06  0.1570796E+01  0.1490844E-07 -0.8960554E+00
  0.5634276E+00  0.2169934E+06 -0.1570797E+01  0.4478740E-01 -0.3094986E+01  0.5679284E+06  0.3331564E-08  0.9256075E+00 -0.4500464E-02  0.4787995E+06  0.1570796E+01  0.4520754E-08  0.2539305E+01
  0.5697082E+00  0.2210655E+06 -0.1570796E+01  0.4780099E-01 -0.3015971E+01  0.5637398E+06 -0.3518720E-08  0.4606499E+00  0.8744974E-02  0.4869003E+06  0.1570797E+01  0.8786079E-08 -0.2582993E+01
  0.5759888E+00  0.2251505E+06 -0.1570796E+01  0.9798307E-01 -0.3108962E+01  0.5595344E+06  0.3163379E-08  0.8431035E+00  0.7691877E-02  0.4949877E+06  0.1570797E+01  0.2667309E-07  0.7977432E+00
  0.5822694E+00  0.2292478E+06 -0.1570796E+01  0.3071658E-01 -0.3109422E+01  0.5553132E+06 -0.1428846E-08  0.1637236E+00 -0.1826791E-01  0.5030555E+06  0.1570797E+01  0.5592784E-08  0.3099950E+01
  0.5885500E+00  0.2333564E+06 -0.1570796E+01  0.4086504E-01 -0.3131697E+01  0.5510767E+06  0.1495209E-08  0.5144836E+00 -0.8423101E-02  0.5111044E+06  0.1570797E+01  0.2945101E-08  0.1249046E+01
  0.5948306E+00  0.2374750E+06 -0.1570796E+01  0.1765344E-02  0.1960933E+01  0.5468256E+06 -0.5915713E-08  0.3902413E+00  0.1493710E-01  0.5191304E+06  0.1570796E+01  0.9313226E-09  0.3141593E+01
  0.6011113E+00  0.2416034E+06 -0.1570796E+01  0.3274223E-01  0.3100687E+01  0.5425607E+06 -0.1124946E-09  0.8805747E+00  0.6827370E-02  0.5271302E+06  0.1570796E+01  0.2010584E-07  0.4947257E+00
  0.6073918E+00  0.2457406E+06 -0.1570796E+01  0.4136559E-01 -0.6034792E-01  0.5382831E+06  0.4648932E-08  0.4414747E+00  0.3135786E+01  0.5351014E+06  0.1570796E+01  0.9313226E-08 -0.9272952E+00
  0.6136725E+00  0.2498850E+06 -0.1570796E+01  0.6652904E-01  0.3136948E+01  0.5339922E+06  0.4800588E-08  0.6572272E+00 -0.3140177E+01  0.5430429E+06  0.1570797E+01  0.9748350E-08 -0.2440738E+01
  0.6199530E+00  0.2540370E+06 -0.1570796E+01  0.5907242E-01 -0.3099864E+01  0.5296907E+06  0.2995926E-08  0.1072110E+00 -0.3116683E+01  0.5509496E+06  0.1570797E+01  0.2095476E-08 -0.1570796E+01
  0.6262337E+00  0.2581947E+06 -0.1570796E+01  0.4190251E-01 -0.3132125E+01  0.5253786E+06  0.4763120E-08  0.1910466E+01  0.3139428E+01  0.5588211E+06  0.1570796E+01  0.1401826E-07  0.1771449E+01
  0.6325143E+00  0.2623578E+06 -0.1570796E+01  0.4006558E-02  0.2592682E+01  0.5210564E+06  0.2225609E-08  0.2148987E+01 -0.3141366E+01  0.5666534E+06  0.1570798E+01  0.4165001E-08 -0.1107149E+01
  0.6387949E+00  0.2665253E+06 -0.1570797E+01  0.6211607E-01 -0.3734742E-01  0.5167249E+06 -0.6378439E-08  0.2812839E+00 -0.1551525E-01  0.5744445E+06  0.1570796E+01  0.2803652E-08 -0.8314123E-01
  0.6450755E+00  0.2706962E+06 -0.1570796E+01  0.1874391E+00 -0.3140534E+01  0.5123848E+06 -0.3573593E-09  0.8693275E+00  0.2931256E-02  0.5821928E+06  0.1570796E+01  0.2374416E-07 -0.4461055E+00
  0.6513561E+00  0.2748696E+06 -0.1570796E+01  0.3466158E-01  0.5615782E-01  0.5080375E+06  0.1201391E-09  0.9690611E+00  0.3511354E-02  0.5898939E+06  0.1570797E+01  0.1812045E-07  0.2051684E+01
  0.6576367E+00  0.2790448E+06 -0.1570797E+01  0.9183461E-01  0.3855754E-01  0.5036830E+06  0.8482441E-09  0.7813182E+00  0.4276983E-02  0.5975453E+06  0.1570795E+01  0.2702441E-07 -0.3446910E-01
  0.6639173E+00  0.2832213E+06 -0.1570796E+01  0.2761853E-01 -0.3038665E-02  0.4993224E+06  0.6722978E-08  0.6047179E-02  0.1177170E+01  0.6051474E+06  0.1570796E+01  0.9385703E-08  0.1051650E+01
  0.6701979E+00  0.2873978E+06 -0.1570797E+01  0.5023933E-01  0.3124432E+01  0.4949563E+06  0.0000000E+00  0.1307459E+00  0.1143741E-01  0.6126938E+06  0.1570796E+01  0.2724914E-07 -0.8640236E+00
  0.6764785E+00  0.2915733E+06 -0.1570796E+01  0.1126711E-01 -0.3032356E+01  0.4905860E+06  0.5349749E-08  0.1034243E+01 -0.2021242E-02  0.6201856E+06  0.1570796E+01  0.1986715E-07 -0.2964884E+01
  0.6827591E+00  0.2957477E+06 -0.1570796E+01  0.1429141E+00 -0.3139778E+01  0.4862112E+06 -0.4142563E-08  0.4498349E+00 -0.5054231E-02  0.6276183E+06  0.1570796E+01  0.1938516E-07  0.4206634E+00
  0.6890397E+00  0.2999193E+06 -0.1570796E+01  0.5255147E-01  0.2758414E-02  0.4818339E+06 -0.1266726E-09  0.1317761E+01  0.4295944E-02  0.6349901E+06  0.1570796E+01  0.2507663E-08 -0.1190290E+01
  0.6953203E+00  0.3040876E+06 -0.1570796E+01  0.1752398E-01  0.6535183E-01  0.4774537E+06  0.7158745E-08  0.6814378E-01  0.1076899E+00  0.6422982E+06  0.1570797E+01  0.1445801E-07 -0.2880990E+01
  0.7016009E+00  0.3082520E+06 -0.1570796E+01  0.1021825E+00  0.3127854E+01  0.4730719E+06  0.4773695E-08  0.1076233E+01 -0.5671185E-04  0.6495409E+06  0.1570796E+01  0.2064855E-07  0.3017238E+01
  0.7078815E+00  0.3124117E+06 -0.1570796E+01  0.8753820E-01 -0.3181696E-01  0.4686889E+06 -0.8464644E-08  0.1764080E+00  0.3962606E-01  0.6567151E+06  0.1570796E+01  0.2949882E-07 -0.2066832E+00
  0.7141621E+00  0.3165657E+06 -0.1570796E+01  0.1129944E+00 -0.3097488E+01  0.4643054E+06 -0.5258191E-09  0.1673710E-01 -0.3101468E+01  0.6638196E+06  0.1570796E+01  0.8132425E-08 -0.1339706E+01
  0.7204427E+00  0.3207132E+06 -0.1570796E+01  0.2807659E-02  0.5434729E-02  0.4599227E+06 -0.3184978E-08  0.2969796E+00  0.3093122E+01  0.6708512E+06  0.1570796E+01  0.1086099E-07  0.2111216E+01
  0.7267233E+00  0.3248531E+06 -0.1570796E+01  0.5574495E-01 -0.3114901E+01  0.4555412E+06  0.1875774E-08  0.1100863E+00  0.6366385E-01  0.6778072E+06  0.1570797E+01  0.1166944E-07 -0.2642246E+01
  0.7330039E+00  0.3289851E+06 -0.1570797E+01  0.1924061E-01 -0.3886930E-01  0.4511615E+06  0.9469915E-09  0.2771648E+00 -0.3136087E+01  0.6846868E+06  0.1570797E+01  0.1304683E-07 -0.3569911E-01
  0.7392845E+00  0.3331081E+06 -0.1570796E+01  0.6570123E-01 -0.7403769E-01  0.4467836E+06 -0.1010915E-07  0.3150029E+00  0.1695406E-02  0.6914871E+06  0.1570796E+01  0.1007379E-07  0.5880026E+00
  0.7455651E+00  0.3372215E+06 -0.1570796E+01  0.6189735E-01 -0.3125815E+01  0.4424093E+06 -0.3035139E-08  0.1493301E+00 -0.8398981E-01  0.6982067E+06  0.1570796E+01  0.2253050E-07  0.2826378E+01
  0.7518457E+00  0.3413242E+06 -0.1570796E+01  0.3020391E-01  0.8674928E-01  0.4380392E+06  0.3065419E-08  0.2227492E+00 -0.3124672E+01  0.7048429E+06  0.1570796E+01  0.1323658E-07  0.8850668E+00
  0.7581264E+00  0.3454160E+06 -0.1570796E+01  0.1139663E-01  0.2721669E+01  0.4336730E+06 -0.1407400E-09  0.4052262E+00 -0.8246537E-02  0.7113931E+06  0.1570796E+01  0.9172464E-08 -0.1152572E+01
  0.7644069E+00  0.3494953E+06 -0.1570797E+01  0.6653666E-01 -0.3417668E-01  0.4293124E+06 -0.8530173E-08  0.2840871E+00 -0.3266250E-01  0.7178554E+06  0.1570797E+01  0.8786079E-08 -0.2582993E+01
  0.7706876E+00  0.3535620E+06 -0.1570796E+01  0.6464944E-01  0.3093662E+01  0.4249577E+06  0.1436264E-08  0.1771306E+00  0.3132978E+01  0.7242283E+06  0.1570796E+01  0.1075063E-07  0.3080528E+00
  0.7769681E+00  0.3576150E+06 -0.1570796E+01  0.3149416E-02 -0.2891914E+01  0.4206094E+06  0.1596224E-08  0.2568384E+00  0.3137196E+01  0.7305096E+06  0.1570796E+01  0.1210719E-07  0.0000000E+00
  0.7832488E+00  0.3616540E+06 -0.1570796E+01  0.3432541E-01 -0.3104465E+01  0.4162680E+06 -0.4398740E-09  0.5362589E+00  0.3869774E-02  0.7366974E+06  0.1570797E+01  0.7092742E-08  0.2736701E+01
  0.7895294E+00  0.3656780E+06 -0.1570796E+01  0.6393669E-01 -0.3133001E+01  0.4119346E+06  0.1481671E-08  0.1236103E+01 -0.5493229E-02  0.7427904E+06  0.1570796E+01  0.1499545E-07  0.6310794E+00
  0.7958100E+00  0.3696855E+06 -0.1570796E+01  0.4235565E-01  0.3105379E+01  0.4076098E+06 -0.7337219E-08  0.1711712E+00 -0.3123317E+01  0.7487843E+06  0.1570796E+01  0.1752892E-07  0.2965458E+00
  0.8020905E+00  0.3736769E+06 -0.1570797E+01  0.6638858E-02  0.2761300E+01  0.4032939E+06  0.4691591E-08  0.1033175E+00  0.3111755E+01  0.7546805E+06  0.1570796E+01  0.1860898E-07 -0.5532943E+00
  0.8083712E+00  0.3776508E+06 -0.1570796E+01  0.9524558E-01  0.2162765E-02  0.3989873E+06 -0.5966032E-08  0.5847903E+00  0.6523235E-02  0.7604751E+06  0.1570796E+01  0.1287956E-07 -0.2279423E+01
  0.8146517E+00  0.3816069E+06 -0.1570797E+01  0.6723135E-01  0.3135805E+01  0.3946916E+06  0.3402083E-08  0.1660767E+00 -0.9187798E-04  0.7661679E+06  0.1570796E+01  0.1333451E-07  0.1138389E+01
  0.8209324E+00  0.3855438E+06 -0.1570796E+01  0.4121488E-01  0.3094001E+01  0.3904063E+06 -0.6253501E-08  0.8239762E+00  0.1962960E-02  0.7717552E+06  0.1570796E+01  0.1214296E-07  0.2574863E+01
  0.8272130E+00  0.3894622E+06 -0.1570796E+01  0.7192203E-01  0.9550988E-01  0.3861326E+06 -0.1011634E-07  0.3699286E-01  0.1732500E-01  0.7772372E+06  0.1570796E+01  0.1164153E-07  0.1570796E+01
  0.8334936E+00  0.3933595E+06 -0.1570796E+01  0.1443551E-01  0.2957154E+01  0.3818709E+06 -0.1598319E-08  0.8956910E+00  0.3141235E+01  0.7826115E+06  0.1570796E+01  0.6780131E-08  0.1292497E+01
  0.8397742E+00  0.3972364E+06 -0.1570797E+01  0.2460269E-01  0.3039702E+01  0.3776218E+06 -0.4202390E-08  0.1333924E+01 -0.1292610E-02  0.7878770E+06  0.1570796E+01  0.4748832E-08 -0.1768192E+01
  0.8460548E+00  0.4010916E+06 -0.1570796E+01  0.1748657E-01  0.3141156E+01  0.3733861E+06 -0.7519342E-08  0.6645213E+00  0.3124898E+01  0.7930294E+06  0.1570796E+01  0.9599853E-08 -0.6823165E+00
  0.8523354E+00  0.4049247E+06 -0.1570796E+01  0.8256827E-02 -0.2559484E+01  0.3691639E+06  0.1173868E-07  0.7665914E+00  0.3130068E+01  0.7980701E+06  0.1570797E+01  0.1133003E-07  0.1735945E+01
  0.8586160E+00  0.4087346E+06 -0.1570796E+01  0.2753017E-01  0.1551982E-01  0.3649562E+06 -0.2174116E-08  0.6854806E-01  0.3097504E+01  0.8029983E+06  0.1570796E+01  0.7957223E-08  0.1212026E+01
  0.8648966E+00  0.4125215E+06 -0.1570796E+01  0.4495258E-01 -0.2885260E-02  0.3607632E+06 -0.6767337E-09  0.1065567E-01  0.2132583E+01  0.8078094E+06  0.1570796E+01  0.1813689E-07  0.5095923E+00
  0.8711772E+00  0.4162840E+06 -0.1570796E+01  0.1760909E-01  0.2905441E+01  0.3565853E+06 -0.1711657E-09  0.5744054E+00  0.3506521E-02  0.8125047E+06  0.1570796E+01  0.1658173E-07 -0.9048271E+00
  0.8774578E+00  0.4200213E+06 -0.1570796E+01  0.7727905E-01  0.3109798E+01  0.3524237E+06  0.2251429E-08  0.4048602E+00  0.3086048E+01  0.8170821E+06  0.1570797E+01  0.3357931E-08 -0.9827937E+00
  0.8837384E+00  0.4237338E+06 -0.1570796E+01  0.1349416E-01 -0.3113320E+01  0.3482783E+06 -0.9989148E-08  0.1499024E+00 -0.9161235E-03  0.8215395E+06  0.1570796E+01  0.2293116E-07 -0.2252768E+00
  0.8900191E+00  0.4274198E+06 -0.1570796E+01  0.1244533E+00 -0.6436890E-02  0.3441497E+06  0.2128207E-08  0.4826918E+00 -0.1896826E-01  0.8258761E+06  0.1570796E+01  0.8011540E-08  0.2521343E+01
  0.8962996E+00  0.4310784E+06 -0.1570796E+01  0.3989200E-01 -0.1663963E-01  0.3400388E+06  0.1023120E-07  0.5164034E+00  0.3121233E+01  0.8300908E+06  0.1570796E+01  0.6535867E-08 -0.3070285E+01
  0.9025802E+00  0.4347109E+06 -0.1570796E+01  0.4598363E-01 -0.1140652E+00  0.3359458E+06  0.3088586E-08  0.7180248E+00 -0.3137087E+01  0.8341816E+06  0.1570797E+01  0.2335745E-07  0.1650626E+01
  0.9088608E+00  0.4383148E+06 -0.1570796E+01  0.4383201E-01  0.3040816E+01  0.3318711E+06 -0.9011699E-08  0.7306537E+00 -0.2255447E-02  0.8381494E+06  0.1570796E+01  0.1516083E-07  0.2399645E+01
  0.9151415E+00  0.4418903E+06 -0.1570797E+01  0.4459947E-01  0.3047711E+01  0.3278153E+06 -0.2048064E-08  0.1544924E+01  0.1540770E-02  0.8419906E+06  0.1570796E+01  0.3357931E-08 -0.5880026E+00
  0.9214220E+00  0.4454363E+06 -0.1570796E+01  0.8932904E-01 -0.9565817E-02  0.3237784E+06  0.7540362E-09  0.1728580E+01  0.3135352E+01  0.8457062E+06  0.1570797E+01  0.2642807E-07 -0.1820048E+01
  0.9277027E+00  0.4489532E+06 -0.1570796E+01  0.1241249E-01  0.9232934E-01  0.3197618E+06 -0.1908770E-09  0.7181438E+00 -0.3128121E+01  0.8492941E+06  0.1570796E+01  0.2622628E-07  0.1858852E+01
  0.9339832E+00  0.4524393E+06 -0.1570796E+01  0.8145147E-01  0.1124016E-02  0.3157653E+06  0.0000000E+00  0.1490679E+01  0.3133557E+01  0.8527542E+06  0.1570796E+01  0.1816079E-07  0.1570796E+01
  0.9402639E+00  0.4558947E+06 -0.1570796E+01  0.2878948E-01 -0.2082060E+00  0.3117893E+06  0.5872731E-09  0.9865293E+00 -0.3135545E+01  0.8560846E+06  0.1570796E+01  0.4656613E-08  0.1570796E+01
  0.9465445E+00  0.4593189E+06 -0.1570796E+01  0.9391778E-01 -0.3110394E+01  0.3078344E+06 -0.9120544E-08  0.8712665E+00 -0.6812743E-02  0.8592839E+06  0.1570796E+01  0.2525327E-07  0.3049263E+01
  0.9528251E+00  0.4627110E+06 -0.1570796E+01  0.8768548E-02  0.3014216E+01  0.3039010E+06  0.3012584E-08  0.1187976E+00  0.6709789E-01  0.8623539E+06  0.1570796E+01  0.1678966E-07  0.1910089E+01
  0.9591056E+00  0.4660705E+06 -0.1570797E+01  0.1271226E-01  0.2461431E+00  0.2999898E+06  0.4069149E-09  0.1271417E+01 -0.3128079E+01  0.8652907E+06  0.1570796E+01  0.1356026E-07  0.2863293E+01
  0.9653863E+00  0.4693972E+06 -0.1570796E+01  0.1374832E+00 -0.3099183E+01  0.2961005E+06 -0.1381070E-07  0.2681917E+00 -0.4892997E-02  0.8680958E+06  0.1570796E+01  0.1445801E-07  0.1831399E+01
  0.9716668E+00  0.4726909E+06 -0.1570796E+01  0.4345225E-01 -0.3107172E+01  0.2922340E+06  0.1148714E-07  0.6439937E+00  0.3123679E+01  0.8707668E+06  0.1570796E+01  0.1125321E-07  0.2714965E+01
  0.9779475E+00  0.4759493E+06 -0.1570796E+01  0.5087088E-01 -0.6874298E-01  0.2883904E+06 -0.8465628E-09  0.3952642E+00  0.1698578E-02  0.8733050E+06  0.1570796E+01  0.2634178E-08  0.7853982E+00
  0.9842281E+00  0.4791740E+06 -0.1570796E+01  0.7820623E-01 -0.6032547E-01  0.2845702E+06 -0.2359301E-08  0.1378297E+01  0.3140264E+01  0.8757080E+06  0.1570796E+01  0.1356026E-07  0.1292497E+01
  0.9905087E+00  0.4823640E+06 -0.1570796E+01  0.3032278E-01  0.1063783E+00  0.2807740E+06  0.4999781E-08  0.7879341E+00 -0.1413687E-02  0.8779758E+06  0.1570796E+01  0.8330002E-08 -0.2034444E+01
  0.9967892E+00  0.4855180E+06 -0.1570796E+01  0.2440632E-01 -0.1090002E+00  0.2770018E+06 -0.6610263E-08  0.2373232E+01  0.3136372E+01  0.8801091E+06  0.1570796E+01  0.1591445E-07 -0.1212026E+01
  0.1003070E+01  0.4886363E+06 -0.1570796E+01  0.1173903E+00  0.1832868E-01  0.2732541E+06 -0.7147651E-08  0.6408991E+00 -0.1373789E-01  0.8821051E+06  0.1570796E+01  0.9778887E-08  0.1570796E+01
  0.1009351E+01  0.4917182E+06 -0.1570796E+01  0.9814622E-01 -0.1171814E+00  0.2695312E+06  0.2490943E-08  0.7011875E+00  0.1146848E-01  0.8839663E+06  0.1570796E+01  0.1682191E-07  0.8441540E+00
  0.1015631E+01  0.4947631E+06 -0.1570796E+01  0.3944359E-01 -0.2746987E-01  0.2658332E+06 -0.9872775E-08  0.1290706E+01  0.3132206E+01  0.8856889E+06  0.1570796E+01  0.1784765E-07  0.1306833E+01
  0.1021912E+01  0.4977712E+06 -0.1570796E+01  0.6383353E-01 -0.2581923E-01  0.2621609E+06 -0.1233923E-07  0.7894468E+00 -0.6765012E-02  0.8872761E+06  0.1570796E+01  0.1271008E-07  0.1423718E+01
  0.1028192E+01  0.5007412E+06 -0.1570796E+01  0.2557521E-01 -0.2730547E+00  0.2585142E+06 -0.7082995E-09  0.1424590E+00 -0.3135166E+01  0.8887253E+06  0.1570796E+01  0.8586370E-08  0.8621700E+00
  0.1034473E+01  0.5036728E+06 -0.1570796E+01  0.6616483E-01 -0.3040410E+01  0.2548933E+06  0.1963520E-07  0.8995624E-01 -0.6212255E-01  0.8900358E+06  0.1570796E+01  0.2213728E-07 -0.1825979E+01
  0.1040753E+01  0.5065661E+06 -0.1570796E+01  0.3971300E-01  0.3051176E+01  0.2512990E+06  0.2768816E-07  0.8327050E+00 -0.3139210E+01  0.8912106E+06  0.1570796E+01  0.1333451E-07 -0.1138389E+01
  0.1047034E+01  0.5094208E+06 -0.1570796E+01  0.2539459E-01  0.3070028E+01  0.2477311E+06  0.7391300E-09  0.4989919E-01 -0.3062616E+01  0.8922467E+06  0.1570796E+01  0.1871935E-07 -0.1471128E+01
  0.1053315E+01  0.5122358E+06 -0.1570796E+01  0.3260135E-01  0.2293605E-01  0.2441899E+06  0.1849627E-07  0.6010446E-01  0.2259646E-01  0.8931452E+06  0.1570797E+01  0.9723293E-08  0.1279340E+01
  0.1059595E+01  0.5150109E+06 -0.1570796E+01  0.6286634E-01  0.3071876E+01  0.2406757E+06  0.6339978E-08  0.7097552E-01 -0.2824805E+01  0.8939042E+06  0.1570796E+01  0.1862645E-08 -0.1570796E+01
  0.1065876E+01  0.5177461E+06 -0.1570796E+01  0.2173135E-01 -0.2259042E+00  0.2371890E+06  0.1595428E-07  0.6892294E-01  0.8133946E-01  0.8945261E+06  0.1570796E+01  0.1061871E-07 -0.1304544E+01
  0.1072156E+01  0.5204413E+06 -0.1570796E+01  0.1051734E-01  0.9735885E-01  0.2337300E+06 -0.9662006E-08  0.6491573E+00 -0.2291990E-01  0.8950118E+06  0.1570796E+01  0.2061570E-07  0.1249046E+01
  0.1078437E+01  0.5230954E+06 -0.1570796E+01  0.7944398E-01  0.4130675E-01  0.2302984E+06 -0.8745871E-08  0.1824695E+00  0.6636235E-01  0.8953575E+06  0.1570796E+01  0.1343173E-07 -0.2158799E+01
  0.1084718E+01  0.5257077E+06 -0.1570796E+01  0.1725738E+00 -0.3109580E+01  0.2268950E+06 -0.1829212E-07  0.6296918E+00 -0.1298880E-01  0.8955669E+06  0.1570796E+01  0.1585985E-07 -0.1512040E+01
  0.1090998E+01  0.5282794E+06 -0.1570796E+01  0.6817697E-01  0.7931240E-01  0.2235196E+06 -0.1829529E-07  0.1875309E+00  0.1455908E+00  0.8956381E+06  0.1570796E+01  0.9497664E-08  0.1768192E+01
  0.1097279E+01  0.5308088E+06 -0.1570796E+01  0.1641980E-01  0.6230288E-01  0.2201726E+06 -0.1663291E-08  0.8801714E-01  0.3131537E+01  0.8955711E+06  0.1570796E+01  0.2945101E-08  0.3217506E+00
  0.1103559E+01  0.5332964E+06 -0.1570796E+01  0.7774574E-02 -0.2519290E+01  0.2168542E+06  0.1716888E-07  0.3091990E+00  0.3067451E+01  0.8953692E+06  0.1570796E+01  0.1121461E-07  0.7266424E+00
  0.1109840E+01  0.5357412E+06 -0.1570796E+01  0.8148460E-01  0.2097463E-01  0.2135645E+06 -0.3715305E-08  0.7291573E+00  0.9270620E-02  0.8950278E+06  0.1570796E+01  0.4748832E-08 -0.1373401E+01
  0.1116121E+01  0.5381436E+06 -0.1570796E+01  0.1209922E-01  0.3022078E+00  0.2103035E+06 -0.8126275E-08  0.1087716E+00  0.2623591E-01  0.8945528E+06  0.1570796E+01  0.1585985E-07 -0.1629552E+01
  0.1122401E+01  0.5405031E+06 -0.1570796E+01  0.1176656E+00 -0.9337039E-02  0.2070718E+06  0.1355867E-07  0.4919147E+00  0.3138863E+01  0.8939406E+06  0.1570796E+01  0.2160187E-07 -0.1700499E+01
  0.1128682E+01  0.5428184E+06 -0.1570796E+01  0.4643710E-01  0.2924872E-01  0.2038692E+06  0.2215441E-07  0.2327554E+00 -0.7230701E-01  0.8931924E+06  0.1570796E+01  0.4021977E-07  0.1478040E+01
  0.1134963E+01  0.5450916E+06 -0.1570796E+01  0.8386020E-02  0.2463026E+00  0.2006957E+06 -0.1216471E-08  0.5970067E+00  0.3133030E+01  0.8923099E+06  0.1570796E+01  0.7679883E-08 -0.2449787E+00
  0.1141243E+01  0.5473201E+06 -0.1570796E+01  0.3373865E-01  0.3061456E+01  0.1975518E+06 -0.1544788E-08  0.3187876E+00  0.7061177E-01  0.8912926E+06  0.1570796E+01  0.1975634E-07 -0.1428899E+01
  0.1147524E+01  0.5495046E+06 -0.1570796E+01  0.2998041E-01  0.4276555E-01  0.1944378E+06 -0.8475459E-08  0.2822124E+00  0.1075983E-01  0.8901424E+06  0.1570796E+01  0.2458762E-07 -0.2000559E+01
  0.1153804E+01  0.5516449E+06 -0.1570796E+01  0.2198226E-01 -0.3081166E+01  0.1913531E+06 -0.3189662E-08  0.3244269E+00 -0.1241705E-01  0.8888582E+06  0.1570796E+01  0.3633352E-07 -0.1545161E+01
  0.1160085E+01  0.5537402E+06 -0.1570796E+01  0.4011661E-01  0.1812824E+00  0.1882983E+06 -0.1199321E-07  0.7350320E+00  0.3127102E+01  0.8874403E+06  0.1570796E+01  0.2082501E-08  0.2034444E+01
  0.1166366E+01  0.5557910E+06 -0.1570796E+01  0.2737187E-01  0.2889178E+01  0.1852732E+06 -0.6918098E-08  0.6494758E+00  0.1433135E-02  0.8858924E+06  0.1570796E+01  0.8330002E-08 -0.2677945E+01
  0.1172646E+01  0.5577970E+06 -0.1570796E+01  0.4033422E-01  0.1042235E+00  0.1822784E+06 -0.1674229E-08  0.6457637E+00 -0.6025447E-02  0.8842114E+06  0.1570796E+01  0.2557324E-07  0.1753907E+01
  0.1178927E+01  0.5597579E+06 -0.1570796E+01  0.4663626E-02  0.1543906E+00  0.1793135E+06  0.3744207E-08  0.8750482E+00  0.3135228E+01  0.8824003E+06  0.1570796E+01  0.2192073E-07 -0.1356736E+01
  0.1185207E+01  0.5616734E+06 -0.1570796E+01  0.5978938E-01  0.9944011E-01  0.1763787E+06 -0.6920923E-09  0.9207062E-01 -0.3116233E+01  0.8804601E+06  0.1570796E+01  0.5015325E-08  0.1190290E+01
  0.1191488E+01  0.5635428E+06 -0.1570796E+01  0.1531936E+00  0.3111009E+01  0.1734738E+06 -0.1372179E-07  0.1820917E+00 -0.1617358E-01  0.8783914E+06  0.1570796E+01  0.1090085E-07 -0.1222025E+01
  0.1197769E+01  0.5653664E+06 -0.1570796E+01  0.1169791E-01 -0.2374643E+01  0.1705995E+06 -0.7155372E-09  0.1939368E+00  0.3730258E-01  0.8761944E+06  0.1570796E+01  0.5015325E-08 -0.2761086E+01
  0.1204049E+01  0.5671444E+06 -0.1570796E+01  0.2529924E-02 -0.2874129E+00  0.1677554E+06 -0.6549016E-08  0.5252703E-01  0.6104165E-01  0.8738694E+06  0.1570796E+01  0.1343173E-07  0.2158799E+01
  0.1210330E+01  0.5688764E+06 -0.1570796E+01  0.3522082E-01 -0.2990689E+01  0.1649415E+06  0.4440494E-08  0.4639329E+00  0.3137120E+01  0.8714194E+06  0.1570796E+01  0.9588553E-08  0.1063698E+01
  0.1216610E+01  0.5705621E+06 -0.1570796E+01  0.4743301E-01 -0.5987035E-01  0.1621579E+06 -0.9409835E-08  0.1024877E+00 -0.3067082E+01  0.8688458E+06  0.1570796E+01  0.5963374E-08  0.2245537E+01
  0.1222891E+01  0.5722011E+06 -0.1570796E+01  0.3609446E-01 -0.2986243E+01  0.1594047E+06  0.3024865E-07  0.2155000E+00  0.1196657E-01  0.8661463E+06  0.1570796E+01  0.1224964E-07  0.1418147E+01
  0.1229172E+01  0.5737939E+06 -0.1570796E+01  0.4853128E-01 -0.3068269E+01  0.1566819E+06 -0.3116385E-08  0.5831246E-01  0.2949124E+01  0.8633246E+06  0.1570796E+01  0.7902534E-08  0.2356194E+01
  0.1235452E+01  0.5753404E+06 -0.1570796E+01  0.1195746E-01 -0.1851375E+01  0.1539894E+06 -0.1307986E-07  0.2689531E+00 -0.3517516E-02  0.8603806E+06  0.1570796E+01  0.1317089E-07 -0.1712693E+01
  0.1241733E+01  0.5768394E+06 -0.1570796E+01  0.3980115E-01 -0.1369090E+00  0.1513273E+06 -0.2621659E-07  0.1974502E+00 -0.3123586E+01  0.8573171E+06  0.1570796E+01  0.3725290E-08  0.1570796E+01
  0.1248013E+01  0.5782919E+06 -0.1570796E+01  0.2692962E-01  0.4591212E-01  0.1486955E+06 -0.2873296E-07  0.3299187E+00  0.2812380E-01  0.8541333E+06  0.1570796E+01  0.5430497E-08  0.2111216E+01
  0.1254294E+01  0.5796973E+06 -0.1570796E+01  0.4618100E-01  0.1850417E-01  0.1460940E+06 -0.1587564E-07  0.5004442E+00  0.3133360E+01  0.8508314E+06  0.1570796E+01  0.9497664E-08  0.1768192E+01
  0.1260575E+01  0.5810553E+06 -0.1570796E+01  0.5804962E-02 -0.5566489E+00  0.1435228E+06  0.2976851E-08  0.5846078E+00 -0.1592222E-01  0.8474120E+06  0.1570796E+01  0.2057359E-07  0.1661456E+01
  0.1266855E+01  0.5823668E+06 -0.1570796E+01  0.2126798E-01  0.1730513E+00  0.1409819E+06 -0.1645130E-07  0.3784062E+00 -0.3137278E+01  0.8438776E+06  0.1570796E+01  0.1973437E-07 -0.1234122E+01
  0.1273136E+01  0.5836308E+06 -0.1570796E+01  0.4953071E-01 -0.6103521E-01  0.1384712E+06 -0.1234180E-07  0.5946666E+00  0.3139668E+01  0.8402285E+06  0.1570796E+01  0.3839941E-08  0.1325818E+01
  0.1279416E+01  0.5848468E+06 -0.1570796E+01  0.1721800E-01  0.1065468E+00  0.1359907E+06  0.1615747E-07  0.3133987E+00 -0.3122116E+01  0.8364671E+06  0.1570796E+01  0.1266736E-07 -0.6287963E+00
  0.1285697E+01  0.5860161E+06 -0.1570796E+01  0.8659951E-03  0.2492521E+00  0.1335402E+06  0.3656436E-08  0.1130987E+00 -0.3138489E+01  0.8325928E+06  0.1570796E+01  0.6519258E-08  0.3141593E+01
  0.1291978E+01  0.5871380E+06 -0.1570796E+01  0.4549192E-02  0.6736933E+00  0.1311198E+06  0.1861966E-08  0.1902795E+00  0.1120210E+00  0.8286081E+06  0.1570796E+01  0.7450581E-08 -0.1570796E+01
  0.1298258E+01  0.5882124E+06 -0.1570796E+01  0.2874497E-01 -0.2527035E+00  0.1287295E+06  0.1422404E-07  0.3472474E-01  0.3016004E+00  0.8245148E+06  0.1570796E+01  0.0000000E+00  0.0000000E+00
  0.1304539E+01  0.5892389E+06 -0.1570796E+01  0.5195186E-02  0.6834563E+00  0.1263690E+06  0.1642171E-07  0.2635815E+00  0.3138640E+01  0.8203142E+06  0.1570796E+01  0.6780131E-08  0.1849096E+01
  0.1310819E+01  0.5902176E+06 -0.1570796E+01  0.7982233E-01 -0.3096846E+01  0.1240385E+06 -0.1279372E-07  0.2863366E-01  0.8964672E-01  0.8160072E+06  0.1570796E+01  0.5430497E-08  0.2111216E+01
  0.1317100E+01  0.5911494E+06 -0.1570796E+01  0.3178389E-01 -0.3097892E+01  0.1217375E+06  0.3960798E-07  0.4757667E+00 -0.3134216E+01  0.8115959E+06  0.1570796E+01  0.3167866E-07 -0.1600200E+01
  0.1323381E+01  0.5920329E+06 -0.1570796E+01  0.2707032E-01  0.1934159E+00  0.1194664E+06 -0.2758850E-07  0.1006365E+00 -0.3091384E+01  0.8070818E+06  0.1570796E+01  0.1883483E-07 -0.1719686E+01
  0.1329661E+01  0.5928693E+06 -0.1570796E+01  0.6497091E-03  0.1651487E+00  0.1172246E+06 -0.8851365E-08  0.2438852E+00  0.4224425E-01  0.8024654E+06  0.1570796E+01  0.6585445E-08 -0.2999696E+01
  0.1335942E+01  0.5936579E+06 -0.1570796E+01  0.4073983E-02  0.7297528E+00  0.1150124E+06  0.5519104E-07  0.6982380E-01 -0.3082555E+01  0.7977511E+06  0.1570796E+01  0.1771962E-07  0.1623379E+01
  0.1342222E+01  0.5943988E+06 -0.1570796E+01  0.5430686E-01 -0.9793526E-01  0.1128295E+06 -0.4868554E-08  0.4397728E+00  0.1162375E-01  0.7929371E+06  0.1570796E+01  0.1591445E-07 -0.1929567E+01
  0.1348503E+01  0.5950919E+06 -0.1570796E+01  0.6023899E-02 -0.1371910E+01  0.1106757E+06  0.7169206E-08  0.1479952E+00  0.3139840E+01  0.7880261E+06  0.1570796E+01  0.1242539E-07 -0.1343997E+01
  0.1354784E+01  0.5957375E+06 -0.1570796E+01  0.5273700E-01 -0.3115549E+01  0.1085512E+06 -0.2811353E-09  0.2290715E-01  0.3123607E+01  0.7830221E+06  0.1570796E+01  0.1375081E-07  0.4939414E+00
  0.1361064E+01  0.5963350E+06 -0.1570796E+01  0.6565217E-02  0.3835275E+00  0.1064555E+06  0.3726706E-08  0.5837066E-01  0.3093736E+01  0.7779228E+06  0.1570796E+01  0.3674891E-07 -0.1723446E+01
  0.1367345E+01  0.5968854E+06 -0.1570796E+01  0.4982718E-01 -0.3083682E+01  0.1043887E+06 -0.1490962E-07  0.1917261E+00  0.3086650E+01  0.7727339E+06  0.1570796E+01  0.1493024E-07  0.1508378E+01
  0.1373626E+01  0.5973882E+06 -0.1570796E+01  0.2766389E-02  0.3548972E+00  0.1023506E+06  0.1759186E-07  0.1134744E+00 -0.3102587E+01  0.7674534E+06  0.1570796E+01  0.1266736E-07  0.1272297E+01
  0.1379906E+01  0.5978437E+06 -0.1570796E+01  0.7356319E-02 -0.3120849E+01  0.1003410E+06  0.2433109E-08  0.5023633E-01 -0.9155361E-01  0.7620857E+06  0.1570796E+01  0.2300197E-07  0.1016489E+01
  0.1386187E+01  0.5982511E+06 -0.1570796E+01  0.1867691E-01 -0.3060622E+01  0.9835984E+05 -0.2730328E-07  0.4042244E+00  0.3134081E+01  0.7566321E+06  0.1570796E+01  0.2924412E-07 -0.1410883E+01
  0.1392467E+01  0.5986121E+06 -0.1570796E+01  0.1500138E-01 -0.2695687E+01  0.9640691E+05  0.2848947E-08  0.3817407E+00 -0.2490489E-01  0.7510931E+06  0.1570796E+01  0.1266736E-07 -0.1272297E+01
  0.1398748E+01  0.5989248E+06 -0.1570796E+01  0.3617943E-01 -0.1268660E+00  0.9448202E+05 -0.1421195E-07  0.3769328E-01  0.5143413E-01  0.7454710E+06  0.1570796E+01  0.2437504E-07 -0.1455920E+01
  0.1405028E+01  0.5991909E+06 -0.1570796E+01  0.1200626E-01 -0.2884592E+01  0.9258517E+05  0.1648081E-08  0.3288334E+00  0.3130085E+01  0.7397692E+06  0.1570796E+01  0.1975634E-07  0.1428899E+01
  0.1411309E+01  0.5994094E+06 -0.1570796E+01  0.1281536E-01  0.2120813E+01  0.9071589E+05  0.2825830E-07  0.1377254E+00 -0.1805998E-01  0.7339872E+06  0.1570796E+01  0.1771962E-07  0.1518213E+01
  0.1417590E+01  0.5995806E+06 -0.1570796E+01  0.1124428E-01  0.2185524E+01  0.8887433E+05  0.2644018E-07  0.1671155E+00 -0.3131275E+01  0.7281274E+06  0.1570796E+01  0.1297182E-07 -0.1203622E+01
  0.1423870E+01  0.5997051E+06 -0.1570796E+01  0.1062170E-01 -0.1723967E-01  0.8706018E+05 -0.1892885E-07  0.2450891E+00 -0.3137110E+01  0.7221929E+06  0.1570796E+01  0.6585445E-08 -0.1428899E+01
  0.1430151E+01  0.5997824E+06 -0.1570796E+01  0.1506055E-01  0.4052663E-02  0.8527318E+05 -0.4902958E-07  0.7756691E-01  0.7403349E-01  0.7161855E+06  0.1570796E+01  0.6333678E-08  0.2984989E+00
  0.1436431E+01  0.5998126E+06 -0.1570796E+01  0.2825739E-01  0.3023601E+01  0.8351340E+05 -0.7454595E-07  0.3164598E-01 -0.1505231E+00  0.7101048E+06  0.1570796E+01  0.3505783E-07 -0.1867342E+01
  0.1442712E+01  0.5997964E+06 -0.1570796E+01  0.5027625E-01 -0.3399843E-01  0.8178026E+05 -0.2724109E-07  0.2209080E+00  0.2473067E-01  0.7039557E+06  0.1570796E+01  0.1600277E-07 -0.1424784E+01
  0.1448993E+01  0.5997336E+06 -0.1570796E+01  0.9347063E-02  0.2984227E+01  0.8007387E+05  0.3430060E-08  0.3834305E+00 -0.3183636E-03  0.6977380E+06  0.1570796E+01  0.4007123E-07  0.1605666E+01
  0.1455273E+01  0.5996241E+06 -0.1570796E+01  0.1072575E-01  0.1338239E+01  0.7839399E+05 -0.2452493E-07  0.2376224E+00  0.2215579E-01  0.6914539E+06  0.1570796E+01  0.3725290E-08  0.3141593E+01
  0.1461554E+01  0.5994681E+06 -0.1570796E+01  0.5674683E-01 -0.3068388E+01  0.7674037E+05 -0.1590692E-08  0.1669668E+00 -0.3070891E+01  0.6851061E+06  0.1570796E+01  0.3754281E-08 -0.1695151E+01
  0.1467834E+01  0.5992654E+06 -0.1570796E+01  0.6174061E-02 -0.8133629E+00  0.7511279E+05  0.2153337E-07  0.7888536E-01  0.3130277E+01  0.6786952E+06  0.1570796E+01  0.5417905E-07 -0.1493365E+01